  12  12   1   0
  0.2098123E+02  0.6268212E-09  0.6354797E-09  0.6326387E-09  0.5000000E-15
  1.000000000000000E-004
  CAR 
 MAPbI3                                  
     19.65343672    -20.43469034  301      1.51355922      1.00000000
    -20.435  0.0000E+00  0.0000E+00
    -20.301  0.0000E+00  0.0000E+00
    -20.167  0.0000E+00  0.0000E+00
    -20.034  0.0000E+00  0.0000E+00
    -19.900  0.0000E+00  0.0000E+00
    -19.767  0.0000E+00  0.0000E+00
    -19.633  0.0000E+00  0.0000E+00
    -19.499  0.0000E+00  0.0000E+00
    -19.366  0.0000E+00  0.0000E+00
    -19.232  0.0000E+00  0.0000E+00
    -19.098  0.0000E+00  0.0000E+00
    -18.965  0.0000E+00  0.0000E+00
    -18.831  0.0000E+00  0.0000E+00
    -18.698  0.0000E+00  0.0000E+00
    -18.564  0.0000E+00  0.0000E+00
    -18.430  0.1497E+02  0.2000E+01
    -18.297  0.0000E+00  0.2000E+01
    -18.163  0.0000E+00  0.2000E+01
    -18.029  0.0000E+00  0.2000E+01
    -17.896  0.0000E+00  0.2000E+01
    -17.762  0.0000E+00  0.2000E+01
    -17.629  0.0000E+00  0.2000E+01
    -17.495  0.0000E+00  0.2000E+01
    -17.361  0.0000E+00  0.2000E+01
    -17.228  0.0000E+00  0.2000E+01
    -17.094  0.0000E+00  0.2000E+01
    -16.960  0.0000E+00  0.2000E+01
    -16.827  0.0000E+00  0.2000E+01
    -16.693  0.0000E+00  0.2000E+01
    -16.560  0.0000E+00  0.2000E+01
    -16.426  0.0000E+00  0.2000E+01
    -16.292  0.0000E+00  0.2000E+01
    -16.159  0.0000E+00  0.2000E+01
    -16.025  0.0000E+00  0.2000E+01
    -15.891  0.0000E+00  0.2000E+01
    -15.758  0.0000E+00  0.2000E+01
    -15.624  0.0000E+00  0.2000E+01
    -15.490  0.0000E+00  0.2000E+01
    -15.357  0.0000E+00  0.2000E+01
    -15.223  0.0000E+00  0.2000E+01
    -15.090  0.0000E+00  0.2000E+01
    -14.956  0.2993E+02  0.6000E+01
    -14.822  0.4490E+02  0.1200E+02
    -14.689  0.0000E+00  0.1200E+02
    -14.555  0.0000E+00  0.1200E+02
    -14.421  0.0000E+00  0.1200E+02
    -14.288  0.0000E+00  0.1200E+02
    -14.154  0.0000E+00  0.1200E+02
    -14.021  0.0000E+00  0.1200E+02
    -13.887  0.0000E+00  0.1200E+02
    -13.753  0.0000E+00  0.1200E+02
    -13.620  0.0000E+00  0.1200E+02
    -13.486  0.0000E+00  0.1200E+02
    -13.352  0.0000E+00  0.1200E+02
    -13.219  0.0000E+00  0.1200E+02
    -13.085  0.0000E+00  0.1200E+02
    -12.952  0.0000E+00  0.1200E+02
    -12.818  0.0000E+00  0.1200E+02
    -12.684  0.0000E+00  0.1200E+02
    -12.551  0.0000E+00  0.1200E+02
    -12.417  0.0000E+00  0.1200E+02
    -12.283  0.0000E+00  0.1200E+02
    -12.150  0.0000E+00  0.1200E+02
    -12.016  0.0000E+00  0.1200E+02
    -11.883  0.0000E+00  0.1200E+02
    -11.749  0.0000E+00  0.1200E+02
    -11.615  0.0000E+00  0.1200E+02
    -11.482  0.6596E+01  0.1200E+02
    -11.348  0.1470E+02  0.1400E+02
    -11.214  0.0000E+00  0.1400E+02
    -11.081  0.0000E+00  0.1400E+02
    -10.947  0.0000E+00  0.1400E+02
    -10.814  0.0000E+00  0.1400E+02
    -10.680  0.0000E+00  0.1400E+02
    -10.546  0.4242E+01  0.1422E+02
    -10.413  0.1018E+02  0.1505E+02
    -10.279  0.5201E+01  0.1600E+02
    -10.145  0.7280E+01  0.1636E+02
    -10.012  0.1337E+02  0.1772E+02
     -9.878  0.1931E+02  0.1860E+02
     -9.745  0.1176E+02  0.1989E+02
     -9.611  0.3490E+00  0.2000E+02
     -9.477  0.0000E+00  0.2000E+02
     -9.344  0.0000E+00  0.2000E+02
     -9.210  0.0000E+00  0.2000E+02
     -9.076  0.0000E+00  0.2000E+02
     -8.943  0.0000E+00  0.2000E+02
     -8.809  0.0000E+00  0.2000E+02
     -8.676  0.0000E+00  0.2000E+02
     -8.542  0.0000E+00  0.2000E+02
     -8.408  0.0000E+00  0.2000E+02
     -8.275  0.0000E+00  0.2000E+02
     -8.141  0.0000E+00  0.2000E+02
     -8.007  0.0000E+00  0.2000E+02
     -7.874  0.1386E+02  0.2002E+02
     -7.740  0.2870E+02  0.2400E+02
     -7.606  0.0000E+00  0.2400E+02
     -7.473  0.0000E+00  0.2400E+02
     -7.339  0.0000E+00  0.2400E+02
     -7.206  0.0000E+00  0.2400E+02
     -7.072  0.0000E+00  0.2400E+02
     -6.938  0.0000E+00  0.2400E+02
     -6.805  0.2523E+00  0.2401E+02
     -6.671  0.6034E+00  0.2407E+02
     -6.537  0.9349E+00  0.2417E+02
     -6.404  0.1386E+01  0.2432E+02
     -6.270  0.2395E+01  0.2457E+02
     -6.137  0.2356E+01  0.2489E+02
     -6.003  0.2588E+01  0.2521E+02
     -5.869  0.1433E+02  0.2572E+02
     -5.736  0.1343E+02  0.2764E+02
     -5.602  0.9639E+00  0.2783E+02
     -5.468  0.5390E+00  0.2793E+02
     -5.335  0.2911E+00  0.2798E+02
     -5.201  0.9174E-03  0.2800E+02
     -5.068  0.0000E+00  0.2800E+02
     -4.934  0.0000E+00  0.2800E+02
     -4.800  0.0000E+00  0.2800E+02
     -4.667  0.0000E+00  0.2800E+02
     -4.533  0.0000E+00  0.2800E+02
     -4.399  0.0000E+00  0.2800E+02
     -4.266  0.0000E+00  0.2800E+02
     -4.132  0.0000E+00  0.2800E+02
     -3.999  0.0000E+00  0.2800E+02
     -3.865  0.0000E+00  0.2800E+02
     -3.731  0.0000E+00  0.2800E+02
     -3.598  0.2993E+02  0.3200E+02
     -3.464  0.0000E+00  0.3200E+02
     -3.330  0.0000E+00  0.3200E+02
     -3.197  0.0000E+00  0.3200E+02
     -3.063  0.0000E+00  0.3200E+02
     -2.930  0.0000E+00  0.3200E+02
     -2.796  0.0000E+00  0.3200E+02
     -2.662  0.0000E+00  0.3200E+02
     -2.529  0.0000E+00  0.3200E+02
     -2.395  0.0000E+00  0.3200E+02
     -2.261  0.0000E+00  0.3200E+02
     -2.128  0.0000E+00  0.3200E+02
     -1.994  0.0000E+00  0.3200E+02
     -1.861  0.2189E+01  0.3210E+02
     -1.727  0.5067E+01  0.3261E+02
     -1.593  0.4407E+01  0.3325E+02
     -1.460  0.3038E+01  0.3373E+02
     -1.326  0.2593E+01  0.3409E+02
     -1.192  0.2672E+01  0.3444E+02
     -1.059  0.2631E+01  0.3480E+02
     -0.925  0.2691E+01  0.3515E+02
     -0.792  0.3591E+01  0.3554E+02
     -0.658  0.5926E+01  0.3612E+02
     -0.524  0.9072E+01  0.3701E+02
     -0.391  0.4909E+01  0.3790E+02
     -0.257  0.6434E+01  0.3850E+02
     -0.123  0.8638E+01  0.3939E+02
      0.010  0.1277E+02  0.4075E+02
      0.144  0.5407E+01  0.4195E+02
      0.278  0.1341E+02  0.4288E+02
      0.411  0.1832E+02  0.4457E+02
      0.545  0.2366E+02  0.4596E+02
      0.678  0.1397E+02  0.4766E+02
      0.812  0.7733E+01  0.4873E+02
      0.946  0.4436E+01  0.4951E+02
      1.079  0.1550E+01  0.4977E+02
      1.213  0.7718E+00  0.4992E+02
      1.347  0.3259E+00  0.4998E+02
      1.480  0.1092E+00  0.5000E+02
      1.614  0.0000E+00  0.5000E+02
      1.747  0.0000E+00  0.5000E+02
      1.881  0.0000E+00  0.5000E+02
      2.015  0.0000E+00  0.5000E+02
      2.148  0.0000E+00  0.5000E+02
      2.282  0.0000E+00  0.5000E+02
      2.416  0.0000E+00  0.5000E+02
      2.549  0.0000E+00  0.5000E+02
      2.683  0.0000E+00  0.5000E+02
      2.816  0.0000E+00  0.5000E+02
      2.950  0.0000E+00  0.5000E+02
      3.084  0.0000E+00  0.5000E+02
      3.217  0.2052E+00  0.5001E+02
      3.351  0.6401E+00  0.5005E+02
      3.485  0.1199E+01  0.5017E+02
      3.618  0.2050E+01  0.5037E+02
      3.752  0.2362E+01  0.5067E+02
      3.885  0.2342E+01  0.5096E+02
      4.019  0.2136E+01  0.5125E+02
      4.153  0.1597E+01  0.5147E+02
      4.286  0.1701E+01  0.5168E+02
      4.420  0.1698E+01  0.5191E+02
      4.554  0.1567E+01  0.5213E+02
      4.687  0.1356E+01  0.5233E+02
      4.821  0.1351E+01  0.5251E+02
      4.954  0.1346E+01  0.5269E+02
      5.088  0.1406E+01  0.5287E+02
      5.222  0.1834E+01  0.5308E+02
      5.355  0.2247E+01  0.5336E+02
      5.489  0.2425E+01  0.5366E+02
      5.623  0.2948E+01  0.5405E+02
      5.756  0.2204E+01  0.5438E+02
      5.890  0.2905E+01  0.5471E+02
      6.023  0.4343E+01  0.5516E+02
      6.157  0.5360E+01  0.5579E+02
      6.291  0.5222E+01  0.5650E+02
      6.424  0.4305E+01  0.5707E+02
      6.558  0.5400E+01  0.5773E+02
      6.692  0.1022E+02  0.5875E+02
      6.825  0.5308E+01  0.5961E+02
      6.959  0.4566E+01  0.6016E+02
      7.092  0.6355E+01  0.6087E+02
      7.226  0.5892E+01  0.6160E+02
      7.360  0.5222E+01  0.6232E+02
      7.493  0.5862E+01  0.6296E+02
      7.627  0.7734E+01  0.6383E+02
      7.761  0.7272E+01  0.6475E+02
      7.894  0.8441E+01  0.6579E+02
      8.028  0.6735E+01  0.6669E+02
      8.162  0.5963E+01  0.6749E+02
      8.295  0.6564E+01  0.6816E+02
      8.429  0.6919E+01  0.6900E+02
      8.562  0.1053E+02  0.7010E+02
      8.696  0.8468E+01  0.7112E+02
      8.830  0.5156E+01  0.7202E+02
      8.963  0.9611E+01  0.7277E+02
      9.097  0.7358E+01  0.7383E+02
      9.231  0.8991E+01  0.7481E+02
      9.364  0.9187E+01  0.7580E+02
      9.498  0.6911E+01  0.7691E+02
      9.631  0.8183E+01  0.7772E+02
      9.765  0.5733E+01  0.7863E+02
      9.899  0.7881E+01  0.7945E+02
     10.032  0.6825E+01  0.8046E+02
     10.166  0.7769E+01  0.8128E+02
     10.300  0.6417E+01  0.8224E+02
     10.433  0.6055E+01  0.8303E+02
     10.567  0.8169E+01  0.8398E+02
     10.700  0.6395E+01  0.8486E+02
     10.834  0.7219E+01  0.8574E+02
     10.968  0.6101E+01  0.8653E+02
     11.101  0.5408E+01  0.8733E+02
     11.235  0.4920E+01  0.8783E+02
     11.369  0.5487E+01  0.8851E+02
     11.502  0.5501E+01  0.8920E+02
     11.636  0.6142E+01  0.8994E+02
     11.769  0.8212E+01  0.9087E+02
     11.903  0.6690E+01  0.9173E+02
     12.037  0.7614E+01  0.9263E+02
     12.170  0.6410E+01  0.9345E+02
     12.304  0.7337E+01  0.9438E+02
     12.438  0.6127E+01  0.9530E+02
     12.571  0.8231E+01  0.9619E+02
     12.705  0.7100E+01  0.9718E+02
     12.838  0.7361E+01  0.9809E+02
     12.972  0.8259E+01  0.9908E+02
     13.106  0.7212E+01  0.1000E+03
     13.239  0.7501E+01  0.1010E+03
     13.373  0.8481E+01  0.1019E+03
     13.507  0.7411E+01  0.1029E+03
     13.640  0.7618E+01  0.1039E+03
     13.774  0.8116E+01  0.1049E+03
     13.907  0.7154E+01  0.1060E+03
     14.041  0.9138E+01  0.1069E+03
     14.175  0.7562E+01  0.1079E+03
     14.308  0.7532E+01  0.1090E+03
     14.442  0.9038E+01  0.1100E+03
     14.576  0.7575E+01  0.1111E+03
     14.709  0.8558E+01  0.1121E+03
     14.843  0.7753E+01  0.1132E+03
     14.976  0.8987E+01  0.1143E+03
     15.110  0.8176E+01  0.1154E+03
     15.244  0.9184E+01  0.1165E+03
     15.377  0.8649E+01  0.1176E+03
     15.511  0.7765E+01  0.1187E+03
     15.645  0.8780E+01  0.1198E+03
     15.778  0.8334E+01  0.1208E+03
     15.912  0.8259E+01  0.1219E+03
     16.046  0.9736E+01  0.1230E+03
     16.179  0.7076E+01  0.1241E+03
     16.313  0.8705E+01  0.1251E+03
     16.446  0.8750E+01  0.1263E+03
     16.580  0.8598E+01  0.1273E+03
     16.714  0.9714E+01  0.1285E+03
     16.847  0.9138E+01  0.1296E+03
     16.981  0.7318E+01  0.1307E+03
     17.115  0.4563E+01  0.1315E+03
     17.248  0.1795E+01  0.1318E+03
     17.382  0.4899E+00  0.1320E+03
     17.515  0.7132E-01  0.1320E+03
     17.649  0.1738E-03  0.1320E+03
     17.783  0.0000E+00  0.1320E+03
     17.916  0.0000E+00  0.1320E+03
     18.050  0.0000E+00  0.1320E+03
     18.184  0.0000E+00  0.1320E+03
     18.317  0.0000E+00  0.1320E+03
     18.451  0.0000E+00  0.1320E+03
     18.584  0.0000E+00  0.1320E+03
     18.718  0.0000E+00  0.1320E+03
     18.852  0.0000E+00  0.1320E+03
     18.985  0.0000E+00  0.1320E+03
     19.119  0.0000E+00  0.1320E+03
     19.253  0.0000E+00  0.1320E+03
     19.386  0.0000E+00  0.1320E+03
     19.520  0.0000E+00  0.1320E+03
     19.653  0.0000E+00  0.1320E+03
     19.65343672    -20.43469034  301      1.51355922      1.00000000
    -20.435  0.0000E+00  0.0000E+00  0.0000E+00  0.0000E+00  0.0000E+00  0.0000E+00  0.0000E+00  0.0000E+00  0.0000E+00
    -20.301  0.0000E+00  0.0000E+00  0.0000E+00  0.0000E+00  0.0000E+00  0.0000E+00  0.0000E+00  0.0000E+00  0.0000E+00
    -20.167  0.0000E+00  0.0000E+00  0.0000E+00  0.0000E+00  0.0000E+00  0.0000E+00  0.0000E+00  0.0000E+00  0.0000E+00
    -20.034  0.0000E+00  0.0000E+00  0.0000E+00  0.0000E+00  0.0000E+00  0.0000E+00  0.0000E+00  0.0000E+00  0.0000E+00
    -19.900  0.0000E+00  0.0000E+00  0.0000E+00  0.0000E+00  0.0000E+00  0.0000E+00  0.0000E+00  0.0000E+00  0.0000E+00
    -19.767  0.0000E+00  0.0000E+00  0.0000E+00  0.0000E+00  0.0000E+00  0.0000E+00  0.0000E+00  0.0000E+00  0.0000E+00
    -19.633  0.0000E+00  0.0000E+00  0.0000E+00  0.0000E+00  0.0000E+00  0.0000E+00  0.0000E+00  0.0000E+00  0.0000E+00
    -19.499  0.0000E+00  0.0000E+00  0.0000E+00  0.0000E+00  0.0000E+00  0.0000E+00  0.0000E+00  0.0000E+00  0.0000E+00
    -19.366  0.0000E+00  0.0000E+00  0.0000E+00  0.0000E+00  0.0000E+00  0.0000E+00  0.0000E+00  0.0000E+00  0.0000E+00
    -19.232  0.0000E+00  0.0000E+00  0.0000E+00  0.0000E+00  0.0000E+00  0.0000E+00  0.0000E+00  0.0000E+00  0.0000E+00
    -19.098  0.0000E+00  0.0000E+00  0.0000E+00  0.0000E+00  0.0000E+00  0.0000E+00  0.0000E+00  0.0000E+00  0.0000E+00
    -18.965  0.0000E+00  0.0000E+00  0.0000E+00  0.0000E+00  0.0000E+00  0.0000E+00  0.0000E+00  0.0000E+00  0.0000E+00
    -18.831  0.0000E+00  0.0000E+00  0.0000E+00  0.0000E+00  0.0000E+00  0.0000E+00  0.0000E+00  0.0000E+00  0.0000E+00
    -18.698  0.0000E+00  0.0000E+00  0.0000E+00  0.0000E+00  0.0000E+00  0.0000E+00  0.0000E+00  0.0000E+00  0.0000E+00
    -18.564  0.0000E+00  0.0000E+00  0.0000E+00  0.0000E+00  0.0000E+00  0.0000E+00  0.0000E+00  0.0000E+00  0.0000E+00
    -18.430  0.8345E-03  0.3055E-05  0.9249E-04  0.2419E-03  0.1048E-05  0.3814E-06  0.7105E-06  0.3438E-04  0.2046E-04
    -18.297  0.0000E+00  0.0000E+00  0.0000E+00  0.0000E+00  0.0000E+00  0.0000E+00  0.0000E+00  0.0000E+00  0.0000E+00
    -18.163  0.0000E+00  0.0000E+00  0.0000E+00  0.0000E+00  0.0000E+00  0.0000E+00  0.0000E+00  0.0000E+00  0.0000E+00
    -18.029  0.0000E+00  0.0000E+00  0.0000E+00  0.0000E+00  0.0000E+00  0.0000E+00  0.0000E+00  0.0000E+00  0.0000E+00
    -17.896  0.0000E+00  0.0000E+00  0.0000E+00  0.0000E+00  0.0000E+00  0.0000E+00  0.0000E+00  0.0000E+00  0.0000E+00
    -17.762  0.0000E+00  0.0000E+00  0.0000E+00  0.0000E+00  0.0000E+00  0.0000E+00  0.0000E+00  0.0000E+00  0.0000E+00
    -17.629  0.0000E+00  0.0000E+00  0.0000E+00  0.0000E+00  0.0000E+00  0.0000E+00  0.0000E+00  0.0000E+00  0.0000E+00
    -17.495  0.0000E+00  0.0000E+00  0.0000E+00  0.0000E+00  0.0000E+00  0.0000E+00  0.0000E+00  0.0000E+00  0.0000E+00
    -17.361  0.0000E+00  0.0000E+00  0.0000E+00  0.0000E+00  0.0000E+00  0.0000E+00  0.0000E+00  0.0000E+00  0.0000E+00
    -17.228  0.0000E+00  0.0000E+00  0.0000E+00  0.0000E+00  0.0000E+00  0.0000E+00  0.0000E+00  0.0000E+00  0.0000E+00
    -17.094  0.0000E+00  0.0000E+00  0.0000E+00  0.0000E+00  0.0000E+00  0.0000E+00  0.0000E+00  0.0000E+00  0.0000E+00
    -16.960  0.0000E+00  0.0000E+00  0.0000E+00  0.0000E+00  0.0000E+00  0.0000E+00  0.0000E+00  0.0000E+00  0.0000E+00
    -16.827  0.0000E+00  0.0000E+00  0.0000E+00  0.0000E+00  0.0000E+00  0.0000E+00  0.0000E+00  0.0000E+00  0.0000E+00
    -16.693  0.0000E+00  0.0000E+00  0.0000E+00  0.0000E+00  0.0000E+00  0.0000E+00  0.0000E+00  0.0000E+00  0.0000E+00
    -16.560  0.0000E+00  0.0000E+00  0.0000E+00  0.0000E+00  0.0000E+00  0.0000E+00  0.0000E+00  0.0000E+00  0.0000E+00
    -16.426  0.0000E+00  0.0000E+00  0.0000E+00  0.0000E+00  0.0000E+00  0.0000E+00  0.0000E+00  0.0000E+00  0.0000E+00
    -16.292  0.0000E+00  0.0000E+00  0.0000E+00  0.0000E+00  0.0000E+00  0.0000E+00  0.0000E+00  0.0000E+00  0.0000E+00
    -16.159  0.0000E+00  0.0000E+00  0.0000E+00  0.0000E+00  0.0000E+00  0.0000E+00  0.0000E+00  0.0000E+00  0.0000E+00
    -16.025  0.0000E+00  0.0000E+00  0.0000E+00  0.0000E+00  0.0000E+00  0.0000E+00  0.0000E+00  0.0000E+00  0.0000E+00
    -15.891  0.0000E+00  0.0000E+00  0.0000E+00  0.0000E+00  0.0000E+00  0.0000E+00  0.0000E+00  0.0000E+00  0.0000E+00
    -15.758  0.0000E+00  0.0000E+00  0.0000E+00  0.0000E+00  0.0000E+00  0.0000E+00  0.0000E+00  0.0000E+00  0.0000E+00
    -15.624  0.0000E+00  0.0000E+00  0.0000E+00  0.0000E+00  0.0000E+00  0.0000E+00  0.0000E+00  0.0000E+00  0.0000E+00
    -15.490  0.0000E+00  0.0000E+00  0.0000E+00  0.0000E+00  0.0000E+00  0.0000E+00  0.0000E+00  0.0000E+00  0.0000E+00
    -15.357  0.0000E+00  0.0000E+00  0.0000E+00  0.0000E+00  0.0000E+00  0.0000E+00  0.0000E+00  0.0000E+00  0.0000E+00
    -15.223  0.0000E+00  0.0000E+00  0.0000E+00  0.0000E+00  0.0000E+00  0.0000E+00  0.0000E+00  0.0000E+00  0.0000E+00
    -15.090  0.0000E+00  0.0000E+00  0.0000E+00  0.0000E+00  0.0000E+00  0.0000E+00  0.0000E+00  0.0000E+00  0.0000E+00
    -14.956  0.3105E-01  0.6997E-02  0.8069E-04  0.5420E-07  0.1790E-07  0.4424E-04  0.3060E-03  0.1636E-09  0.9196E-03
    -14.822  0.6535E-03  0.2104E-03  0.3020E-03  0.3539E-03  0.1567E-03  0.1305E-03  0.1794E-04  0.2829E-05  0.2651E-04
    -14.689  0.0000E+00  0.0000E+00  0.0000E+00  0.0000E+00  0.0000E+00  0.0000E+00  0.0000E+00  0.0000E+00  0.0000E+00
    -14.555  0.0000E+00  0.0000E+00  0.0000E+00  0.0000E+00  0.0000E+00  0.0000E+00  0.0000E+00  0.0000E+00  0.0000E+00
    -14.421  0.0000E+00  0.0000E+00  0.0000E+00  0.0000E+00  0.0000E+00  0.0000E+00  0.0000E+00  0.0000E+00  0.0000E+00
    -14.288  0.0000E+00  0.0000E+00  0.0000E+00  0.0000E+00  0.0000E+00  0.0000E+00  0.0000E+00  0.0000E+00  0.0000E+00
    -14.154  0.0000E+00  0.0000E+00  0.0000E+00  0.0000E+00  0.0000E+00  0.0000E+00  0.0000E+00  0.0000E+00  0.0000E+00
    -14.021  0.0000E+00  0.0000E+00  0.0000E+00  0.0000E+00  0.0000E+00  0.0000E+00  0.0000E+00  0.0000E+00  0.0000E+00
    -13.887  0.0000E+00  0.0000E+00  0.0000E+00  0.0000E+00  0.0000E+00  0.0000E+00  0.0000E+00  0.0000E+00  0.0000E+00
    -13.753  0.0000E+00  0.0000E+00  0.0000E+00  0.0000E+00  0.0000E+00  0.0000E+00  0.0000E+00  0.0000E+00  0.0000E+00
    -13.620  0.0000E+00  0.0000E+00  0.0000E+00  0.0000E+00  0.0000E+00  0.0000E+00  0.0000E+00  0.0000E+00  0.0000E+00
    -13.486  0.0000E+00  0.0000E+00  0.0000E+00  0.0000E+00  0.0000E+00  0.0000E+00  0.0000E+00  0.0000E+00  0.0000E+00
    -13.352  0.0000E+00  0.0000E+00  0.0000E+00  0.0000E+00  0.0000E+00  0.0000E+00  0.0000E+00  0.0000E+00  0.0000E+00
    -13.219  0.0000E+00  0.0000E+00  0.0000E+00  0.0000E+00  0.0000E+00  0.0000E+00  0.0000E+00  0.0000E+00  0.0000E+00
    -13.085  0.0000E+00  0.0000E+00  0.0000E+00  0.0000E+00  0.0000E+00  0.0000E+00  0.0000E+00  0.0000E+00  0.0000E+00
    -12.952  0.0000E+00  0.0000E+00  0.0000E+00  0.0000E+00  0.0000E+00  0.0000E+00  0.0000E+00  0.0000E+00  0.0000E+00
    -12.818  0.0000E+00  0.0000E+00  0.0000E+00  0.0000E+00  0.0000E+00  0.0000E+00  0.0000E+00  0.0000E+00  0.0000E+00
    -12.684  0.0000E+00  0.0000E+00  0.0000E+00  0.0000E+00  0.0000E+00  0.0000E+00  0.0000E+00  0.0000E+00  0.0000E+00
    -12.551  0.0000E+00  0.0000E+00  0.0000E+00  0.0000E+00  0.0000E+00  0.0000E+00  0.0000E+00  0.0000E+00  0.0000E+00
    -12.417  0.0000E+00  0.0000E+00  0.0000E+00  0.0000E+00  0.0000E+00  0.0000E+00  0.0000E+00  0.0000E+00  0.0000E+00
    -12.283  0.0000E+00  0.0000E+00  0.0000E+00  0.0000E+00  0.0000E+00  0.0000E+00  0.0000E+00  0.0000E+00  0.0000E+00
    -12.150  0.0000E+00  0.0000E+00  0.0000E+00  0.0000E+00  0.0000E+00  0.0000E+00  0.0000E+00  0.0000E+00  0.0000E+00
    -12.016  0.0000E+00  0.0000E+00  0.0000E+00  0.0000E+00  0.0000E+00  0.0000E+00  0.0000E+00  0.0000E+00  0.0000E+00
    -11.883  0.0000E+00  0.0000E+00  0.0000E+00  0.0000E+00  0.0000E+00  0.0000E+00  0.0000E+00  0.0000E+00  0.0000E+00
    -11.749  0.0000E+00  0.0000E+00  0.0000E+00  0.0000E+00  0.0000E+00  0.0000E+00  0.0000E+00  0.0000E+00  0.0000E+00
    -11.615  0.0000E+00  0.0000E+00  0.0000E+00  0.0000E+00  0.0000E+00  0.0000E+00  0.0000E+00  0.0000E+00  0.0000E+00
    -11.482  0.8270E-01  0.1967E-04  0.2586E-04  0.4710E-04  0.1816E-06  0.8841E-06  0.1670E-04  0.5900E-06  0.1526E-04
    -11.348  0.5081E-01  0.4994E-04  0.2178E-03  0.7371E-03  0.5668E-05  0.1318E-05  0.1566E-04  0.5415E-04  0.1965E-04
    -11.214  0.0000E+00  0.0000E+00  0.0000E+00  0.0000E+00  0.0000E+00  0.0000E+00  0.0000E+00  0.0000E+00  0.0000E+00
    -11.081  0.0000E+00  0.0000E+00  0.0000E+00  0.0000E+00  0.0000E+00  0.0000E+00  0.0000E+00  0.0000E+00  0.0000E+00
    -10.947  0.0000E+00  0.0000E+00  0.0000E+00  0.0000E+00  0.0000E+00  0.0000E+00  0.0000E+00  0.0000E+00  0.0000E+00
    -10.814  0.0000E+00  0.0000E+00  0.0000E+00  0.0000E+00  0.0000E+00  0.0000E+00  0.0000E+00  0.0000E+00  0.0000E+00
    -10.680  0.0000E+00  0.0000E+00  0.0000E+00  0.0000E+00  0.0000E+00  0.0000E+00  0.0000E+00  0.0000E+00  0.0000E+00
    -10.546  0.1522E+01  0.4454E-03  0.2911E-04  0.2831E-05  0.5454E-06  0.4571E-06  0.2026E-03  0.6508E-06  0.3342E-03
    -10.413  0.4790E+01  0.1440E-02  0.1302E-03  0.4496E-05  0.3280E-05  0.2144E-05  0.4594E-03  0.1660E-05  0.6338E-03
    -10.279  0.3000E+01  0.7282E-03  0.8466E-04  0.3174E-05  0.2239E-05  0.1028E-05  0.2172E-03  0.6553E-06  0.2481E-03
    -10.145  0.1360E+01  0.2925E-02  0.3528E-04  0.7188E-04  0.3090E-04  0.6041E-05  0.4760E-04  0.1306E-05  0.5483E-04
    -10.012  0.2724E+01  0.1417E-02  0.1720E-03  0.4007E-03  0.2974E-04  0.3529E-05  0.3440E-04  0.1222E-05  0.2224E-04
     -9.878  0.7401E+00  0.1733E-02  0.7577E-03  0.2660E-04  0.6719E-05  0.1076E-03  0.1949E-04  0.4107E-06  0.8129E-05
     -9.745  0.3877E+00  0.6628E-03  0.1561E-03  0.2593E-04  0.4557E-05  0.1945E-04  0.1965E-04  0.1625E-06  0.1649E-04
     -9.611  0.6463E-02  0.9743E-05  0.1599E-05  0.4616E-06  0.2635E-07  0.2137E-06  0.7953E-06  0.4716E-09  0.7078E-06
     -9.477  0.0000E+00  0.0000E+00  0.0000E+00  0.0000E+00  0.0000E+00  0.0000E+00  0.0000E+00  0.0000E+00  0.0000E+00
     -9.344  0.0000E+00  0.0000E+00  0.0000E+00  0.0000E+00  0.0000E+00  0.0000E+00  0.0000E+00  0.0000E+00  0.0000E+00
     -9.210  0.0000E+00  0.0000E+00  0.0000E+00  0.0000E+00  0.0000E+00  0.0000E+00  0.0000E+00  0.0000E+00  0.0000E+00
     -9.076  0.0000E+00  0.0000E+00  0.0000E+00  0.0000E+00  0.0000E+00  0.0000E+00  0.0000E+00  0.0000E+00  0.0000E+00
     -8.943  0.0000E+00  0.0000E+00  0.0000E+00  0.0000E+00  0.0000E+00  0.0000E+00  0.0000E+00  0.0000E+00  0.0000E+00
     -8.809  0.0000E+00  0.0000E+00  0.0000E+00  0.0000E+00  0.0000E+00  0.0000E+00  0.0000E+00  0.0000E+00  0.0000E+00
     -8.676  0.0000E+00  0.0000E+00  0.0000E+00  0.0000E+00  0.0000E+00  0.0000E+00  0.0000E+00  0.0000E+00  0.0000E+00
     -8.542  0.0000E+00  0.0000E+00  0.0000E+00  0.0000E+00  0.0000E+00  0.0000E+00  0.0000E+00  0.0000E+00  0.0000E+00
     -8.408  0.0000E+00  0.0000E+00  0.0000E+00  0.0000E+00  0.0000E+00  0.0000E+00  0.0000E+00  0.0000E+00  0.0000E+00
     -8.275  0.0000E+00  0.0000E+00  0.0000E+00  0.0000E+00  0.0000E+00  0.0000E+00  0.0000E+00  0.0000E+00  0.0000E+00
     -8.141  0.0000E+00  0.0000E+00  0.0000E+00  0.0000E+00  0.0000E+00  0.0000E+00  0.0000E+00  0.0000E+00  0.0000E+00
     -8.007  0.0000E+00  0.0000E+00  0.0000E+00  0.0000E+00  0.0000E+00  0.0000E+00  0.0000E+00  0.0000E+00  0.0000E+00
     -7.874  0.7269E-02  0.1744E-04  0.2679E-03  0.3149E-01  0.4985E-04  0.9787E-06  0.1223E-05  0.1723E-02  0.4091E-04
     -7.740  0.1523E+00  0.4070E-03  0.8158E-02  0.1785E-01  0.2580E-04  0.1406E-04  0.1240E-04  0.1169E-02  0.1147E-02
     -7.606  0.0000E+00  0.0000E+00  0.0000E+00  0.0000E+00  0.0000E+00  0.0000E+00  0.0000E+00  0.0000E+00  0.0000E+00
     -7.473  0.0000E+00  0.0000E+00  0.0000E+00  0.0000E+00  0.0000E+00  0.0000E+00  0.0000E+00  0.0000E+00  0.0000E+00
     -7.339  0.0000E+00  0.0000E+00  0.0000E+00  0.0000E+00  0.0000E+00  0.0000E+00  0.0000E+00  0.0000E+00  0.0000E+00
     -7.206  0.0000E+00  0.0000E+00  0.0000E+00  0.0000E+00  0.0000E+00  0.0000E+00  0.0000E+00  0.0000E+00  0.0000E+00
     -7.072  0.0000E+00  0.0000E+00  0.0000E+00  0.0000E+00  0.0000E+00  0.0000E+00  0.0000E+00  0.0000E+00  0.0000E+00
     -6.938  0.0000E+00  0.0000E+00  0.0000E+00  0.0000E+00  0.0000E+00  0.0000E+00  0.0000E+00  0.0000E+00  0.0000E+00
     -6.805  0.9173E-03  0.5867E-02  0.3721E-05  0.2880E-06  0.1801E-06  0.4109E-05  0.3460E-05  0.2220E-08  0.1076E-04
     -6.671  0.4887E-02  0.1331E-01  0.1476E-04  0.2286E-05  0.8114E-06  0.1007E-04  0.1993E-04  0.1155E-07  0.6452E-04
     -6.537  0.1157E-01  0.1926E-01  0.3643E-04  0.7420E-05  0.1563E-05  0.1546E-04  0.5166E-04  0.3238E-07  0.1694E-03
     -6.404  0.2229E-01  0.2648E-01  0.8079E-04  0.1946E-04  0.2353E-05  0.2240E-04  0.1092E-03  0.8689E-07  0.3611E-03
     -6.270  0.4598E-01  0.4193E-01  0.1944E-03  0.5272E-04  0.3250E-05  0.3686E-04  0.2449E-03  0.2708E-06  0.8162E-03
     -6.137  0.4389E-01  0.3933E-01  0.2883E-03  0.1279E-03  0.3280E-05  0.3545E-04  0.2678E-03  0.8177E-06  0.9264E-03
     -6.003  0.4425E-01  0.3379E-01  0.4967E-03  0.3741E-03  0.3024E-05  0.3190E-04  0.3070E-03  0.2639E-05  0.1153E-02
     -5.869  0.4640E-01  0.3041E-01  0.1950E-02  0.1363E-01  0.2282E-04  0.3558E-04  0.4285E-03  0.7114E-04  0.2396E-02
     -5.736  0.7355E-01  0.3002E-01  0.2079E-02  0.5292E-02  0.2313E-04  0.3521E-04  0.4842E-03  0.2265E-03  0.1321E-02
     -5.602  0.2527E-01  0.8596E-02  0.1771E-03  0.2327E-04  0.8589E-06  0.9033E-05  0.2020E-03  0.6415E-06  0.5689E-03
     -5.468  0.1597E-01  0.3903E-02  0.1510E-03  0.5386E-05  0.2905E-06  0.4373E-05  0.1445E-03  0.7268E-07  0.4264E-03
     -5.335  0.9260E-02  0.1274E-02  0.1093E-03  0.3266E-05  0.6829E-07  0.1686E-05  0.9315E-04  0.7105E-08  0.2816E-03
     -5.201  0.3010E-04  0.2438E-05  0.3888E-06  0.7998E-08  0.1091E-09  0.4035E-08  0.3180E-06  0.9954E-11  0.9683E-06
     -5.068  0.0000E+00  0.0000E+00  0.0000E+00  0.0000E+00  0.0000E+00  0.0000E+00  0.0000E+00  0.0000E+00  0.0000E+00
     -4.934  0.0000E+00  0.0000E+00  0.0000E+00  0.0000E+00  0.0000E+00  0.0000E+00  0.0000E+00  0.0000E+00  0.0000E+00
     -4.800  0.0000E+00  0.0000E+00  0.0000E+00  0.0000E+00  0.0000E+00  0.0000E+00  0.0000E+00  0.0000E+00  0.0000E+00
     -4.667  0.0000E+00  0.0000E+00  0.0000E+00  0.0000E+00  0.0000E+00  0.0000E+00  0.0000E+00  0.0000E+00  0.0000E+00
     -4.533  0.0000E+00  0.0000E+00  0.0000E+00  0.0000E+00  0.0000E+00  0.0000E+00  0.0000E+00  0.0000E+00  0.0000E+00
     -4.399  0.0000E+00  0.0000E+00  0.0000E+00  0.0000E+00  0.0000E+00  0.0000E+00  0.0000E+00  0.0000E+00  0.0000E+00
     -4.266  0.0000E+00  0.0000E+00  0.0000E+00  0.0000E+00  0.0000E+00  0.0000E+00  0.0000E+00  0.0000E+00  0.0000E+00
     -4.132  0.0000E+00  0.0000E+00  0.0000E+00  0.0000E+00  0.0000E+00  0.0000E+00  0.0000E+00  0.0000E+00  0.0000E+00
     -3.999  0.0000E+00  0.0000E+00  0.0000E+00  0.0000E+00  0.0000E+00  0.0000E+00  0.0000E+00  0.0000E+00  0.0000E+00
     -3.865  0.0000E+00  0.0000E+00  0.0000E+00  0.0000E+00  0.0000E+00  0.0000E+00  0.0000E+00  0.0000E+00  0.0000E+00
     -3.731  0.0000E+00  0.0000E+00  0.0000E+00  0.0000E+00  0.0000E+00  0.0000E+00  0.0000E+00  0.0000E+00  0.0000E+00
     -3.598  0.1387E-01  0.1541E-02  0.2386E-01  0.4666E-01  0.3706E-04  0.2883E-04  0.1205E-03  0.1031E-02  0.7120E-03
     -3.464  0.0000E+00  0.0000E+00  0.0000E+00  0.0000E+00  0.0000E+00  0.0000E+00  0.0000E+00  0.0000E+00  0.0000E+00
     -3.330  0.0000E+00  0.0000E+00  0.0000E+00  0.0000E+00  0.0000E+00  0.0000E+00  0.0000E+00  0.0000E+00  0.0000E+00
     -3.197  0.0000E+00  0.0000E+00  0.0000E+00  0.0000E+00  0.0000E+00  0.0000E+00  0.0000E+00  0.0000E+00  0.0000E+00
     -3.063  0.0000E+00  0.0000E+00  0.0000E+00  0.0000E+00  0.0000E+00  0.0000E+00  0.0000E+00  0.0000E+00  0.0000E+00
     -2.930  0.0000E+00  0.0000E+00  0.0000E+00  0.0000E+00  0.0000E+00  0.0000E+00  0.0000E+00  0.0000E+00  0.0000E+00
     -2.796  0.0000E+00  0.0000E+00  0.0000E+00  0.0000E+00  0.0000E+00  0.0000E+00  0.0000E+00  0.0000E+00  0.0000E+00
     -2.662  0.0000E+00  0.0000E+00  0.0000E+00  0.0000E+00  0.0000E+00  0.0000E+00  0.0000E+00  0.0000E+00  0.0000E+00
     -2.529  0.0000E+00  0.0000E+00  0.0000E+00  0.0000E+00  0.0000E+00  0.0000E+00  0.0000E+00  0.0000E+00  0.0000E+00
     -2.395  0.0000E+00  0.0000E+00  0.0000E+00  0.0000E+00  0.0000E+00  0.0000E+00  0.0000E+00  0.0000E+00  0.0000E+00
     -2.261  0.0000E+00  0.0000E+00  0.0000E+00  0.0000E+00  0.0000E+00  0.0000E+00  0.0000E+00  0.0000E+00  0.0000E+00
     -2.128  0.0000E+00  0.0000E+00  0.0000E+00  0.0000E+00  0.0000E+00  0.0000E+00  0.0000E+00  0.0000E+00  0.0000E+00
     -1.994  0.0000E+00  0.0000E+00  0.0000E+00  0.0000E+00  0.0000E+00  0.0000E+00  0.0000E+00  0.0000E+00  0.0000E+00
     -1.861  0.7990E-03  0.3432E+00  0.7889E-02  0.2459E-01  0.1395E-03  0.3955E-04  0.2395E-04  0.2156E-05  0.7227E-04
     -1.727  0.3102E-02  0.6983E+00  0.2285E-01  0.4514E-01  0.7557E-03  0.2124E-03  0.9649E-04  0.4531E-05  0.3048E-03
     -1.593  0.4129E-02  0.4266E+00  0.4009E-01  0.3073E-01  0.5734E-03  0.6275E-03  0.1372E-03  0.4086E-05  0.4112E-03
     -1.460  0.4443E-02  0.2951E+00  0.3341E-01  0.2705E-01  0.2853E-03  0.4973E-03  0.1532E-03  0.2654E-05  0.4543E-03
     -1.326  0.5000E-02  0.2721E+00  0.3198E-01  0.3083E-01  0.2711E-03  0.3147E-03  0.1769E-03  0.2526E-05  0.5219E-03
     -1.192  0.6065E-02  0.2720E+00  0.3857E-01  0.4454E-01  0.2724E-03  0.3057E-03  0.2199E-03  0.3587E-05  0.6411E-03
     -1.059  0.6205E-02  0.2185E+00  0.4973E-01  0.1060E+00  0.2390E-03  0.2811E-03  0.2318E-03  0.1109E-04  0.6476E-03
     -0.925  0.6324E-02  0.1881E+00  0.6578E-01  0.1846E+00  0.1758E-03  0.2354E-03  0.2373E-03  0.2194E-04  0.6236E-03
     -0.792  0.6770E-02  0.1613E+00  0.8435E-01  0.4551E+00  0.1309E-03  0.1843E-03  0.2506E-03  0.5432E-04  0.6110E-03
     -0.658  0.1243E-01  0.2632E+00  0.2301E+00  0.8487E+00  0.1047E-03  0.1274E-03  0.4684E-03  0.1230E-03  0.1067E-02
     -0.524  0.1614E-01  0.2952E+00  0.8725E+00  0.8548E+00  0.2611E-03  0.1564E-03  0.4879E-03  0.2096E-03  0.1061E-02
     -0.391  0.6829E-02  0.1202E+00  0.5125E+00  0.1675E+00  0.1485E-03  0.1955E-03  0.1617E-03  0.6902E-04  0.3164E-03
     -0.257  0.4843E-02  0.1386E+00  0.6765E+00  0.4038E+00  0.3248E-03  0.3360E-03  0.2123E-03  0.1033E-03  0.4815E-03
     -0.123  0.5144E-02  0.2157E+00  0.7400E+00  0.9413E+00  0.6725E-03  0.3721E-03  0.3269E-03  0.1547E-03  0.9921E-03
      0.010  0.6764E-02  0.3986E+00  0.1272E+01  0.1806E+01  0.7655E-03  0.5394E-03  0.5306E-03  0.2102E-03  0.1047E-02
      0.144  0.1617E-02  0.1280E+00  0.7253E+00  0.2990E+00  0.6513E-03  0.1765E-03  0.1102E-03  0.7440E-04  0.2695E-03
      0.278  0.6582E-02  0.3777E+00  0.6521E+00  0.4812E+00  0.1194E-02  0.5733E-03  0.6656E-03  0.2113E-03  0.1416E-02
      0.411  0.5353E-02  0.5323E+00  0.3221E+00  0.9365E+00  0.8829E-03  0.1398E-02  0.6833E-03  0.1913E-03  0.1963E-02