    2    2    1    1
  0.2254527E+02  0.3995153E-09  0.3995153E-09  0.3995153E-09  0.5000000E-15
  1.000000000000000E-004
  CAR 
 unknown system                          
      8     80     12
 
  0.5000000E+00  0.5000000E+00  0.5000000E+00  0.1250000E-01
    1       -8.308969   1.000000
    2       -3.851998   1.000000
    3        1.625586   1.000000
    4        1.625586   1.000000
    5        3.810610   0.000000
    6        7.428218   0.000000
    7        7.428218   0.000000
    8       10.524412   0.000000
    9       13.200589   0.000000
   10       14.650683   0.000000
   11       14.650683   0.000000
   12       15.338436   0.000000
 
  0.4736842E+00  0.4736842E+00  0.4736842E+00  0.1250000E-01
    1       -8.327994   1.000000
    2       -3.816173   1.000000
    3        1.631057   1.000000
    4        1.631057   1.000000
    5        3.816252   0.000000
    6        7.431420   0.000000
    7        7.431420   0.000000
    8       10.527323   0.000000
    9       13.071250   0.000000
   10       14.454320   0.000000
   11       14.454320   0.000000
   12       15.468378   0.000000
 
  0.4473684E+00  0.4473684E+00  0.4473684E+00  0.1250000E-01
    1       -8.383090   1.000000
    2       -3.710753   1.000000
    3        1.647450   1.000000
    4        1.647450   1.000000
    5        3.833150   0.000000
    6        7.440568   0.000000
    7        7.440568   0.000000
    8       10.533280   0.000000
    9       12.757989   0.000000
   10       14.066548   0.000000
   11       14.066548   0.000000
   12       15.779255   0.000000
 
  0.4210526E+00  0.4210526E+00  0.4210526E+00  0.1250000E-01
    1       -8.468940   1.000000
    2       -3.541307   1.000000
    3        1.674723   1.000000
    4        1.674723   1.000000
    5        3.861077   0.000000
    6        7.454202   0.000000
    7        7.454202   0.000000
    8       10.531967   0.000000
    9       12.374843   0.000000
   10       13.648152   0.000000
   11       13.648152   0.000000
   12       16.141460   0.000000
 
  0.3947368E+00  0.3947368E+00  0.3947368E+00  0.1250000E-01
    1       -8.578343   1.000000
    2       -3.315143   1.000000
    3        1.712424   1.000000
    4        1.712424   1.000000
    5        3.899802   0.000000
    6        7.469839   0.000000
    7        7.469839   0.000000
    8       10.499026   0.000000
    9       12.002764   0.000000
   10       13.243520   0.000000
   11       13.243520   0.000000
   12       16.442361   0.000000
 
  0.3684211E+00  0.3684211E+00  0.3684211E+00  0.1250000E-01
    1       -8.703824   1.000000
    2       -3.040197   1.000000
    3        1.760359   1.000000
    4        1.760359   1.000000
    5        3.948823   0.000000
    6        7.483973   0.000000
    7        7.483973   0.000000
    8       10.387671   0.000000
    9       11.713287   0.000000
   10       12.869103   0.000000
   11       12.869103   0.000000
   12       16.561000   0.000000
 
  0.3421053E+00  0.3421053E+00  0.3421053E+00  0.1250000E-01
    1       -8.838610   1.000000
    2       -2.723730   1.000000
    3        1.818127   1.000000
    4        1.818127   1.000000
    5        4.007408   0.000000
    6        7.492096   0.000000
    7        7.492096   0.000000
    8       10.152220   0.000000
    9       11.563061   0.000000
   10       12.535035   0.000000
   11       12.535035   0.000000
   12       16.410671   0.000000
 
  0.3157895E+00  0.3157895E+00  0.3157895E+00  0.1250000E-01
    1       -8.976981   1.000000
    2       -2.372246   1.000000
    3        1.885032   1.000000
    4        1.885032   1.000000
    5        4.074414   0.000000
    6        7.488772   0.000000
    7        7.488772   0.000000
    8        9.806685   0.000000
    9       11.542104   0.000000
   10       12.249596   0.000000
   11       12.249596   0.000000
   12       16.030600   0.000000
 
  0.2894737E+00  0.2894737E+00  0.2894737E+00  0.1250000E-01
    1       -9.114379   1.000000
    2       -1.991062   1.000000
    3        1.960326   1.000000
    4        1.960326   1.000000
    5        4.148126   0.000000
    6        7.468483   0.000000
    7        7.468483   0.000000
    8        9.402175   0.000000
    9       11.599200   0.000000
   10       12.020418   0.000000
   11       12.020418   0.000000
   12       15.528435   0.000000
 
  0.2631579E+00  0.2631579E+00  0.2631579E+00  0.1250000E-01
    1       -9.247278   1.000000
    2       -1.584694   1.000000
    3        2.043005   1.000000
    4        2.043005   1.000000
    5        4.225937   0.000000
    6        7.426490   0.000000
    7        7.426490   0.000000
    8        8.975502   0.000000
    9       11.692886   0.000000
   10       11.853907   0.000000
   11       11.853907   0.000000
   12       14.988178   0.000000
 
  0.2368421E+00  0.2368421E+00  0.2368421E+00  0.1250000E-01
    1       -9.372941   1.000000
    2       -1.157262   1.000000
    3        2.131678   1.000000
    4        2.131678   1.000000
    5        4.303767   0.000000
    6        7.360108   0.000000
    7        7.360108   0.000000
    8        8.546609   0.000000
    9       11.754049   0.000000
   10       11.754049   0.000000
   11       11.791115   0.000000
   12       14.466608   0.000000
 
  0.2105263E+00  0.2105263E+00  0.2105263E+00  0.1250000E-01
    1       -9.489281   1.000000
    2       -0.712277   1.000000
    3        2.224632   1.000000
    4        2.224632   1.000000
    5        4.375364   0.000000
    6        7.269856   0.000000
    7        7.269856   0.000000
    8        8.128208   0.000000
    9       11.721705   0.000000
   10       11.721705   0.000000
   11       11.855466   0.000000
   12       14.016753   0.000000
 
  0.1842105E+00  0.1842105E+00  0.1842105E+00  0.1250000E-01
    1       -9.594694   1.000000
    2       -0.253262   1.000000
    3        2.319864   1.000000
    4        2.319864   1.000000
    5        4.430889   0.000000
    6        7.159963   0.000000
    7        7.159963   0.000000
    8        7.731612   0.000000
    9       11.754269   0.000000
   10       11.754269   0.000000
   11       11.830350   0.000000
   12       13.703474   0.000000
 
  0.1578947E+00  0.1578947E+00  0.1578947E+00  0.1250000E-01
    1       -9.687974   1.000000
    2        0.216197   1.000000
    3        2.414573   1.000000
    4        2.414573   1.000000
    5        4.455627   0.000000
    6        7.037394   0.000000
    7        7.037394   0.000000
    8        7.370432   0.000000
    9       11.670555   0.000000
   10       11.845972   0.000000
   11       11.845972   0.000000
   12       13.579287   0.000000
 
  0.1315789E+00  0.1315789E+00  0.1315789E+00  0.1250000E-01
    1       -9.768194   1.000000
    2        0.692240   1.000000
    3        2.505490   1.000000
    4        2.505490   1.000000
    5        4.429148   0.000000
    6        6.910978   0.000000
    7        6.910978   0.000000
    8        7.061984   0.000000
    9       11.401925   0.000000
   10       11.988846   0.000000
   11       11.988846   0.000000
   12       13.623100   0.000000
 
  0.1052632E+00  0.1052632E+00  0.1052632E+00  0.1250000E-01
    1       -9.834642   1.000000
    2        1.170562   1.000000
    3        2.588837   1.000000
    4        2.588837   1.000000
    5        4.329145   0.000000
    6        6.790231   0.000000
    7        6.790231   0.000000
    8        6.824358   0.000000
    9       11.096311   0.000000
   10       12.173201   0.000000
   11       12.173201   0.000000
   12       13.766002   0.000000
 
  0.7894737E-01  0.7894737E-01  0.7894737E-01  0.1250000E-01
    1       -9.886809   1.000000
    2        1.644623   1.000000
    3        2.660348   1.000000
    4        2.660348   1.000000
    5        4.141746   0.000000
    6        6.666592   0.000000
    7        6.684448   0.000000
    8        6.684448   0.000000
    9       10.811579   0.000000
   10       12.386103   0.000000
   11       12.386103   0.000000
   12       13.948924   0.000000
 
  0.5263158E-01  0.5263158E-01  0.5263158E-01  0.1250000E-01
    1       -9.924331   1.000000
    2        2.104787   1.000000
    3        2.715591   1.000000
    4        2.715591   1.000000
    5        3.873816   0.000000
    6        6.579713   0.000000
    7        6.601968   0.000000
    8        6.601968   0.000000
    9       10.584338   0.000000
   10       12.606846   0.000000
   11       12.606846   0.000000
   12       14.127547   0.000000
 
  0.2631579E-01  0.2631579E-01  0.2631579E-01  0.1250000E-01
    1       -9.946939   1.000000
    2        2.525161   1.000000
    3        2.750587   0.999997
    4        2.750587   0.999997
    5        3.561018   0.000000
    6        6.541490   0.000000
    7        6.549463   0.000000
    8        6.549463   0.000000
    9       10.438242   0.000000
   10       12.794469   0.000000
   11       12.794469   0.000000
   12       14.260581   0.000000
 
  0.0000000E+00  0.0000000E+00  0.0000000E+00  0.1250000E-01
    1       -9.954477   1.000000
    2        2.762598   0.999993
    3        2.762598   0.999993
    4        2.762599   0.999993
    5        3.357967   0.000024
    6        6.531457   0.000000
    7        6.531457   0.000000
    8        6.531458   0.000000
    9       10.387855   0.000000
   10       12.874506   0.000000
   11       12.874506   0.000000
   12       14.310516   0.000000
 
  0.0000000E+00  0.0000000E+00  0.0000000E+00  0.1250000E-01
    1       -9.954477   1.000000
    2        2.762598   0.999993
    3        2.762598   0.999993
    4        2.762599   0.999993
    5        3.357967   0.000024
    6        6.531457   0.000000
    7        6.531457   0.000000
    8        6.531458   0.000000
    9       10.387855   0.000000
   10       12.874506   0.000000
   11       12.874506   0.000000
   12       14.310516   0.000000
 
  0.0000000E+00  0.2631579E-01  0.2631579E-01  0.1250000E-01
    1       -9.944422   1.000000
    2        2.495972   1.000000
    3        2.725284   0.999999
    4        2.725285   0.999999
    5        3.622605   0.000000
    6        6.490024   0.000000
    7        6.582426   0.000000
    8        6.582427   0.000000
    9       10.454736   0.000000
   10       12.662256   0.000000
   11       12.885527   0.000000
   12       14.334038   0.000000
 
  0.0000000E+00  0.5263158E-01  0.5263158E-01  0.1250000E-01
    1       -9.914260   1.000000
    2        2.057525   1.000000
    3        2.619523   1.000000
    4        2.619524   1.000000
    5        4.053173   0.000000
    6        6.374935   0.000000
    7        6.729133   0.000000
    8        6.729133   0.000000
    9       10.645546   0.000000
   10       12.208684   0.000000
   11       12.918590   0.000000
   12       14.404674   0.000000
 
  0.0000000E+00  0.7894737E-01  0.7894737E-01  0.1250000E-01
    1       -9.864146   1.000000
    2        1.597124   1.000000
    3        2.460411   1.000000
    4        2.460412   1.000000
    5        4.493146   0.000000
    6        6.208791   0.000000
    7        6.956209   0.000000
    8        6.956210   0.000000
    9       10.931540   0.000000
   10       11.704289   0.000000
   11       12.973747   0.000000
   12       14.522506   0.000000
 
  0.0000000E+00  0.1052632E+00  0.1052632E+00  0.1250000E-01
    1       -9.794373   1.000000
    2        1.134018   1.000000
    3        2.265439   1.000000
    4        2.265440   1.000000
    5        4.907246   0.000000
    6        6.020931   0.000000
    7        7.245932   0.000000
    8        7.245933   0.000000
    9       11.088914   0.000000
   10       11.423359   0.000000
   11       13.050899   0.000000
   12       14.687656   0.000000
 
  0.0000000E+00  0.1315789E+00  0.1315789E+00  0.1250000E-01
    1       -9.705293   1.000000
    2        0.673135   1.000000
    3        2.049685   1.000000
    4        2.049685   1.000000
    5        5.243279   0.000000
    6        5.861499   0.000000
    7        7.582414   0.000000
    8        7.582414   0.000000
    9       10.697971   0.000000
   10       11.806540   0.000000
   11       13.149913   0.000000
   12       14.900104   0.000000
 
  0.0000000E+00  0.1578947E+00  0.1578947E+00  0.1250000E-01
    1       -9.597432   1.000000
    2        0.217116   1.000000
    3        1.825167   1.000000
    4        1.825167   1.000000
    5        5.345511   0.000000
    6        5.874173   0.000000
    7        7.953526   0.000000
    8        7.953526   0.000000
    9       10.341782   0.000000
   10       12.291812   0.000000
   11       13.270798   0.000000
   12       15.160110   0.000000
 
  0.0000000E+00  0.1842105E+00  0.1842105E+00  0.1250000E-01
    1       -9.471507   1.000000
    2       -0.232763   1.000000
    3        1.600384   1.000000
    4        1.600385   1.000000
    5        5.213158   0.000000
    6        6.035951   0.000000
    7        8.350172   0.000000
    8        8.350172   0.000000
    9       10.107316   0.000000
   10       12.818410   0.000000
   11       13.413439   0.000000
   12       15.467514   0.000000
 
  0.0000000E+00  0.2105263E+00  0.2105263E+00  0.1250000E-01
    1       -9.328432   1.000000
    2       -0.675339   1.000000
    3        1.381350   1.000000
    4        1.381351   1.000000
    5        5.032104   0.000000
    6        6.135956   0.000000
    7        8.765713   0.000000
    8        8.765714   0.000000
    9       10.032102   0.000000
   10       13.372308   0.000000
   11       13.577644   0.000000
   12       15.821934   0.000000
 
  0.0000000E+00  0.2368421E+00  0.2368421E+00  0.1250000E-01
    1       -9.169425   1.000000
    2       -1.109229   1.000000
    3        1.172757   1.000000
    4        1.172758   1.000000
    5        4.853354   0.000000
    6        6.117931   0.000000
    7        9.195242   0.000000
    8        9.195243   0.000000
    9       10.127524   0.000000
   10       13.763228   0.000000
   11       13.942313   0.000000
   12       16.222834   0.000000
 
  0.0000000E+00  0.2631579E+00  0.2631579E+00  0.1250000E-01
    1       -8.996125   1.000000
    2       -1.532421   1.000000
    3        0.977775   1.000000
    4        0.977775   1.000000
    5        4.689357   0.000000
    6        5.995556   0.000000
    7        9.634997   0.000000
    8        9.634997   0.000000
    9       10.370753   0.000000
   10       13.969786   0.000000
   11       14.515696   0.000000
   12       16.668959   0.000000
 
  0.0000000E+00  0.2894737E+00  0.2894737E+00  0.1250000E-01
    1       -8.810687   1.000000
    2       -1.942738   1.000000
    3        0.798794   1.000000
    4        0.798795   1.000000
    5        4.545151   0.000000
    6        5.805478   0.000000
    7       10.081825   0.000000
    8       10.081826   0.000000
    9       10.720748   0.000000
   10       14.196742   0.000000
   11       15.075452   0.000000
   12       17.157738   0.000000
 
  0.0000000E+00  0.3157895E+00  0.3157895E+00  0.1250000E-01
    1       -8.616013   1.000000
    2       -2.337020   1.000000
    3        0.637657   1.000000
    4        0.637658   1.000000
    5        4.423486   0.000000
    6        5.582795   0.000000
    7       10.532869   0.000000
    8       10.532869   0.000000
    9       11.138906   0.000000
   10       14.443195   0.000000
   11       15.597097   0.000000
   12       17.681565   0.000000
 
  0.0000000E+00  0.3421053E+00  0.3421053E+00  0.1250000E-01
    1       -8.416170   1.000000
    2       -2.710962   1.000000
    3        0.495652   1.000000
    4        0.495653   1.000000
    5        4.326022   0.000000
    6        5.352369   0.000000
    7       10.984469   0.000000
    8       10.984469   0.000000
    9       11.595681   0.000000
   10       14.707651   0.000000
   11       16.043225   0.000000
   12       18.167308   0.000000
 
  0.0000000E+00  0.3684211E+00  0.3684211E+00  0.1250000E-01
    1       -8.216685   1.000000
    2       -3.058619   1.000000
    3        0.374011   1.000000
    4        0.374012   1.000000
    5        4.254051   0.000000
    6        5.130149   0.000000
    7       11.432015   0.000000
    8       11.432015   0.000000
    9       12.069447   0.000000
   10       14.987573   0.000000
   11       16.365390   0.000000
   12       17.927041   0.000000
 
  0.0000000E+00  0.3947368E+00  0.3947368E+00  0.1250000E-01
    1       -8.025316   1.000000
    2       -3.371870   1.000000
    3        0.273651   1.000000
    4        0.273652   1.000000
    5        4.208144   0.000000
    6        4.926111   0.000000
    7       11.867557   0.000000
    8       11.867557   0.000000
    9       12.541125   0.000000
   10       15.279063   0.000000
   11       16.518651   0.000000
   12       17.394806   0.000000
 
  0.0000000E+00  0.4210526E+00  0.4210526E+00  0.1250000E-01
    1       -7.852623   1.000000
    2       -3.639840   1.000000
    3        0.194870   1.000000
    4        0.194871   1.000000
    5        4.188233   0.000000
    6        4.746693   0.000000
    7       12.276429   0.000000
    8       12.276429   0.000000
    9       12.989527   0.000000
   10       15.571511   0.000000
   11       16.499213   0.000000
   12       16.895279   0.000000
 
  0.0000000E+00  0.4473684E+00  0.4473684E+00  0.1250000E-01
    1       -7.712097   1.000000
    2       -3.848682   1.000000
    3        0.138289   1.000000
    4        0.138290   1.000000
    5        4.192747   0.000000
    6        4.597519   0.000000
    7       12.632360   0.000000
    8       12.632360   0.000000
    9       13.383661   0.000000
   10       15.846463   0.000000
   11       16.364156   0.000000
   12       16.471886   0.000000
 
  0.0000000E+00  0.4736842E+00  0.4736842E+00  0.1250000E-01
    1       -7.618936   1.000000
    2       -3.982916   1.000000
    3        0.104233   1.000000
    4        0.104234   1.000000
    5        4.215018   0.000000
    6        4.487658   0.000000
    7       12.889219   0.000000
    8       12.889220   0.000000
    9       13.671851   0.000000
   10       16.062880   0.000000
   11       16.174057   0.000000
   12       16.174608   0.000000
 
  0.0000000E+00  0.5000000E+00  0.5000000E+00  0.1250000E-01
    1       -7.586154   1.000000
    2       -4.029514   1.000000
    3        0.092716   1.000000
    4        0.092717   1.000000
    5        4.231271   0.000000
    6        4.441910   0.000000
    7       12.985706   0.000000
    8       12.985706   0.000000
    9       13.781534   0.000000
   10       16.063595   0.000000
   11       16.063756   0.000000
   12       16.141347   0.000000
 
  0.0000000E+00  0.5000000E+00  0.5000000E+00  0.1250000E-01
    1       -7.586154   1.000000
    2       -4.029514   1.000000
    3        0.092716   1.000000
    4        0.092717   1.000000
    5        4.231271   0.000000
    6        4.441910   0.000000
    7       12.985706   0.000000
    8       12.985706   0.000000
    9       13.781534   0.000000
   10       16.063596   0.000000
   11       16.063825   0.000000
   12       16.144034   0.000000
 
  0.1315789E-01  0.5065789E+00  0.5065789E+00  0.1250000E-01
    1       -7.585995   1.000000
    2       -4.028902   1.000000
    3        0.085105   1.000000
    4        0.093919   1.000000
    5        4.238099   0.000000
    6        4.449262   0.000000
    7       12.967142   0.000000
    8       12.975017   0.000000
    9       13.780761   0.000000
   10       15.964965   0.000000
   11       15.980328   0.000000
   12       16.232608   0.000000
 
  0.2631579E-01  0.5131579E+00  0.5131579E+00  0.1250000E-01
    1       -7.585549   1.000000
    2       -4.027024   1.000000
    3        0.062227   1.000000
    4        0.097655   1.000000
    5        4.256499   0.000000
    6        4.473009   0.000000
    7       12.914330   0.000000
    8       12.943384   0.000000
    9       13.774915   0.000000
   10       15.860283   0.000000
   11       15.861416   0.000000
   12       16.343068   0.000000
 
  0.3947368E-01  0.5197368E+00  0.5197368E+00  0.1250000E-01
    1       -7.584860   1.000000
    2       -4.024019   1.000000
    3        0.025192   1.000000
    4        0.103649   1.000000
    5        4.281118   0.000000
    6        4.517366   0.000000
    7       12.833820   0.000000
    8       12.891982   0.000000
    9       13.755793   0.000000
   10       15.731482   0.000000
   11       15.787553   0.000000
   12       16.459670   0.000000
 
  0.5263158E-01  0.5263158E+00  0.5263158E+00  0.1250000E-01
    1       -7.583960   1.000000
    2       -4.019845   1.000000
    3       -0.024589   1.000000
    4        0.112031   1.000000
    5        4.306403   0.000000
    6        4.586527   0.000000
    7       12.732879   0.000000
    8       12.822682   0.000000
    9       13.715474   0.000000
   10       15.595639   0.000000
   11       15.748172   0.000000
   12       16.581816   0.000000
 
  0.6578947E-01  0.5328947E+00  0.5328947E+00  0.1250000E-01
    1       -7.582913   1.000000
    2       -4.014516   1.000000
    3       -0.085115   1.000000
    4        0.122745   1.000000
    5        4.329811   0.000000
    6        4.681225   0.000000
    7       12.617425   0.000000
    8       12.737555   0.000000
    9       13.649478   0.000000
   10       15.453323   0.000000
   11       15.744152   0.000000
   12       16.710733   0.000000
 
  0.7894737E-01  0.5394737E+00  0.5394737E+00  0.1250000E-01
    1       -7.581797   1.000000
    2       -4.008063   1.000000
    3       -0.154405   1.000000
    4        0.135869   1.000000
    5        4.351638   0.000000
    6        4.799215   0.000000
    7       12.492059   0.000000
    8       12.639090   0.000000
    9       13.557769   0.000000
   10       15.306236   0.000000
   11       15.772830   0.000000
   12       16.847036   0.000000
 
  0.9210526E-01  0.5460526E+00  0.5460526E+00  0.1250000E-01
    1       -7.580727   1.000000
    2       -4.000541   1.000000
    3       -0.230492   1.000000
    4        0.151324   1.000000
    5        4.372976   0.000000
    6        4.937346   0.000000
    7       12.359745   0.000000
    8       12.529265   0.000000
    9       13.443155   0.000000
   10       15.154878   0.000000
   11       15.828975   0.000000
   12       16.989738   0.000000
 
  0.1052632E+00  0.5526316E+00  0.5526316E+00  0.1250000E-01
    1       -7.579807   1.000000
    2       -3.991959   1.000000
    3       -0.311287   1.000000
    4        0.169128   1.000000
    5        4.394839   0.000000
    6        5.092751   0.000000
    7       12.223078   0.000000
    8       12.410374   0.000000
    9       13.310403   0.000000
   10       15.000730   0.000000
   11       15.906873   0.000000
   12       17.139195   0.000000
 
  0.1184211E+00  0.5592105E+00  0.5592105E+00  0.1250000E-01
    1       -7.579180   1.000000
    2       -3.982368   1.000000
    3       -0.394989   1.000000
    4        0.189241   1.000000
    5        4.417807   0.000000
    6        5.262998   0.000000
    7       12.083640   0.000000
    8       12.284082   0.000000
    9       13.163763   0.000000
   10       14.844483   0.000000
   11       16.000836   0.000000
   12       17.294620   0.000000
 
  0.1315789E+00  0.5657895E+00  0.5657895E+00  0.1250000E-01
    1       -7.579001   1.000000
    2       -3.971806   1.000000
    3       -0.479910   1.000000
    4        0.211638   1.000000
    5        4.442251   0.000000
    6        5.446060   0.000000
    7       11.942757   0.000000
    8       12.151933   0.000000
    9       13.007008   0.000000
   10       14.686941   0.000000
   11       16.106130   0.000000
   12       17.454639   0.000000
 
  0.1447368E+00  0.5723684E+00  0.5723684E+00  0.1250000E-01
    1       -7.579442   1.000000
    2       -3.960304   1.000000
    3       -0.564539   1.000000
    4        0.236292   1.000000
    5        4.468382   0.000000
    6        5.640211   0.000000
    7       11.801499   0.000000
    8       12.015243   0.000000
    9       12.843117   0.000000
   10       14.528787   0.000000
   11       16.218909   0.000000
   12       17.618731   0.000000
 
  0.1578947E+00  0.5789474E+00  0.5789474E+00  0.1250000E-01
    1       -7.580687   1.000000
    2       -3.947887   1.000000
    3       -0.647528   1.000000
    4        0.263171   1.000000
    5        4.496315   0.000000
    6        5.844018   0.000000
    7       11.660776   0.000000
    8       11.875117   0.000000
    9       12.674363   0.000000
   10       14.370604   0.000000
   11       16.336056   0.000000
   12       17.786154   0.000000
 
  0.1710526E+00  0.5855263E+00  0.5855263E+00  0.1250000E-01
    1       -7.582945   1.000000
    2       -3.934567   1.000000
    3       -0.727701   1.000000
    4        0.292239   1.000000
    5        4.526103   0.000000
    6        6.056006   0.000000
    7       11.521388   0.000000
    8       11.732478   0.000000
    9       12.502444   0.000000
   10       14.212888   0.000000
   11       16.454945   0.000000
   12       17.956012   0.000000
 
  0.1842105E+00  0.5921053E+00  0.5921053E+00  0.1250000E-01
    1       -7.586426   1.000000
    2       -3.920336   1.000000
    3       -0.804016   1.000000
    4        0.323458   1.000000
    5        4.557758   0.000000
    6        6.275010   0.000000
    7       11.384112   0.000000
    8       11.588106   0.000000
    9       12.328651   0.000000
   10       14.056064   0.000000
   11       16.573271   0.000000
   12       18.127625   0.000000
 
  0.1973684E+00  0.5986842E+00  0.5986842E+00  0.1250000E-01
    1       -7.591348   1.000000
    2       -3.905167   1.000000
    3       -0.875479   1.000000
    4        0.356800   1.000000
    5        4.591282   0.000000
    6        6.499953   0.000000
    7       11.249747   0.000000
    8       11.442663   0.000000
    9       12.153973   0.000000
   10       13.900508   0.000000
   11       16.688990   0.000000
   12       18.300816   0.000000
 
  0.2105263E+00  0.6052632E+00  0.6052632E+00  0.1250000E-01
    1       -7.597950   1.000000
    2       -3.889006   1.000000
    3       -0.941500   1.000000
    4        0.392193   1.000000
    5        4.626599   0.000000
    6        6.729407   0.000000
    7       11.119111   0.000000
    8       11.296675   0.000000
    9       11.979144   0.000000
   10       13.746517   0.000000
   11       16.799526   0.000000
   12       18.474325   0.000000
 
  0.2236842E+00  0.6118421E+00  0.6118421E+00  0.1250000E-01
    1       -7.606457   1.000000
    2       -3.871763   1.000000
    3       -1.001320   1.000000
    4        0.429601   1.000000
    5        4.663670   0.000000
    6        6.962189   0.000000
    7       10.993200   0.000000
    8       11.150616   0.000000
    9       11.804771   0.000000
   10       13.594383   0.000000
   11       16.902562   0.000000
   12       18.588886   0.000000
 
  0.2368421E+00  0.6184211E+00  0.6184211E+00  0.1250000E-01
    1       -7.617097   1.000000
    2       -3.853315   1.000000
    3       -1.054391   1.000000
    4        0.468971   1.000000
    5        4.702417   0.000000
    6        7.196816   0.000000
    7       10.873213   0.000000
    8       11.004880   0.000000
    9       11.631341   0.000000
   10       13.444358   0.000000
   11       16.995255   0.000000
   12       18.490385   0.000000
 
  0.2500000E+00  0.6250000E+00  0.6250000E+00  0.1250000E-01
    1       -7.630087   1.000000
    2       -3.833477   1.000000
    3       -1.100219   1.000000
    4        0.510316   1.000000
    5        4.742762   0.000000
    6        7.431586   0.000000
    7       10.760706   0.000000
    8       10.859817   0.000000
    9       11.459289   0.000000
   10       13.296683   0.000000
   11       17.074421   0.000000
   12       18.373515   0.000000
 
  0.3750000E+00  0.7500000E+00  0.3750000E+00  0.1250000E-01
    1       -7.630087   1.000000
    2       -3.833477   1.000000
    3       -1.100219   1.000000
    4        0.510316   1.000000
    5        4.742762   0.000000
    6        7.431586   0.000000
    7       10.760706   0.000000
    8       10.859817   0.000000
    9       11.459289   0.000000
   10       13.296683   0.000000
   11       17.074421   0.000000
   12       18.373517   0.000000
 
  0.3552632E+00  0.7105263E+00  0.3552632E+00  0.1250000E-01
    1       -7.685170   1.000000
    2       -3.763718   1.000000
    3       -1.192000   1.000000
    4        0.644914   1.000000
    5        4.872103   0.000000
    6        8.107787   0.000000
    7       10.431187   0.000000
    8       10.492178   0.000000
    9       10.955609   0.000000
   10       12.869586   0.000000
   11       17.193469   0.000000
   12       17.956736   0.000000
 
  0.3355263E+00  0.6710526E+00  0.3355263E+00  0.1250000E-01
    1       -7.767448   1.000000
    2       -3.672750   1.000000
    3       -1.212857   1.000000
    4        0.794194   1.000000
    5        5.010744   0.000000
    6        8.630772   0.000000
    7       10.016746   0.000000
    8       10.374894   0.000000
    9       10.535689   0.000000
   10       12.470279   0.000000
   11       17.094821   0.000000
   12       17.513113   0.000000
 
  0.3157895E+00  0.6315789E+00  0.3157895E+00  0.1250000E-01
    1       -7.878486   1.000000
    2       -3.552451   1.000000
    3       -1.165337   1.000000
    4        0.955854   1.000000
    5        5.153024   0.000000
    6        8.821365   0.000000
    7        9.620383   0.000000
    8        9.976609   0.000000
    9       10.809780   0.000000
   10       12.103015   0.000000
   11       16.832418   0.000000
   12       17.076600   0.000000
 
  0.2960526E+00  0.5921053E+00  0.2960526E+00  0.1250000E-01
    1       -8.016610   1.000000
    2       -3.395670   1.000000
    3       -1.055892   1.000000
    4        1.127187   1.000000
    5        5.291057   0.000000
    6        8.751528   0.000000
    7        9.244758   0.000000
    8        9.538788   0.000000
    9       11.458901   0.000000
   10       11.771883   0.000000
   11       16.492980   0.000000