unknown system                          
           1
     5.650000    0.000000    0.000000
     0.000000    5.650000    0.000000
     0.000000    0.000000    5.650000
   Ga   As
     4     4
Direct configuration=     1
   0.00000000  0.00000000  0.00000000
   0.50000000  0.50000000  0.00000000
   0.50000000  0.00000000  0.50000000
   0.00000000  0.50000000  0.50000000
   0.25000000  0.25000000  0.25000000
   0.75000000  0.75000000  0.25000000
   0.75000000  0.25000000  0.75000000
   0.25000000  0.75000000  0.75000000
Direct configuration=     2
   0.00013507  0.00013347  0.99992745
   0.49984998  0.49970844  0.99990928
   0.49974546  0.00030209  0.50011681
   0.99998622  0.50007803  0.50025051
   0.25016888  0.24987150  0.25000772
   0.75000743  0.74992115  0.24992514
   0.75018859  0.24989547  0.74978553
   0.24989872  0.75010526  0.75009172
Direct configuration=     3
   0.00027006  0.00026688  0.99985497
   0.49970006  0.49941696  0.99981856
   0.49949106  0.00060399  0.50023356
   0.99997248  0.50015607  0.50050086
   0.25033764  0.24974310  0.25001547
   0.75001480  0.74984234  0.24985029
   0.75037712  0.24979097  0.74957114
   0.24979749  0.75021050  0.75018345
Direct configuration=     4
   0.00040490  0.00040016  0.99978266
   0.49955032  0.49912561  0.99972781
   0.49923687  0.00090558  0.50035022
   0.99995880  0.50023415  0.50075093
   0.25050618  0.24961487  0.25002328
   0.75002207  0.74976361  0.24977549
   0.75056554  0.24968652  0.74935689
   0.24969639  0.75031568  0.75027517
Direct configuration=     5
   0.00053957  0.00053329  0.99971053
   0.49940084  0.49883443  0.99963698
   0.49898303  0.00120668  0.50046676
   0.99994521  0.50031230  0.50100061
   0.25067437  0.24948691  0.25003116
   0.75002919  0.74968501  0.24970075
   0.75075382  0.24958215  0.74914287
   0.24959547  0.75042076  0.75036688
Direct configuration=     6
   0.00067399  0.00066622  0.99963868
   0.49925173  0.49854351  0.99954608
   0.49872965  0.00150710  0.50058309
   0.99993171  0.50039055  0.50124980
   0.25084211  0.24935931  0.25003915
   0.75003610  0.74960656  0.24962609
   0.75094187  0.24947788  0.74892914
   0.24949479  0.75052572  0.75045859
Direct configuration=     7
   0.00080809  0.00079889  0.99956715
   0.49910309  0.49825291  0.99945512
   0.49847687  0.00180667  0.50069917
   0.99991835  0.50046890  0.50149836
   0.25100928  0.24923215  0.25004727
   0.75004274  0.74952831  0.24955152
   0.75112964  0.24937375  0.74871578
   0.24939441  0.75063052  0.75055028
Direct configuration=     8
   0.00094180  0.00093125  0.99949603
   0.49895502  0.49796272  0.99936408
   0.49822483  0.00210520  0.50081493
   0.99990516  0.50054738  0.50174615
   0.25117574  0.24910553  0.25005553
   0.75004907  0.74945030  0.24947706
   0.75131707  0.24926979  0.74850287
   0.24929438  0.75073515  0.75064195
Direct configuration=     9
   0.00107504  0.00106324  0.99942541
   0.49880763  0.49767303  0.99927296
   0.49797364  0.00240251  0.50093032
   0.99989217  0.50062599  0.50199303
   0.25134139  0.24897954  0.25006396
   0.75005504  0.74937257  0.24940274
   0.75150407  0.24916602  0.74829052
   0.24919477  0.75083956  0.75073359
Direct configuration=    10
   0.00120774  0.00119479  0.99935535
   0.49866103  0.49738392  0.99918175
   0.49772345  0.00269844  0.50104527
   0.99987943  0.50070475  0.50223884
   0.25150610  0.24885428  0.25007258
   0.75006060  0.74929515  0.24932856
   0.75169056  0.24906248  0.74807883
   0.24909564  0.75094371  0.75082521
Direct configuration=    11
   0.00133983  0.00132585  0.99928595
   0.49851531  0.49709547  0.99909044
   0.49747437  0.00299279  0.50115974
   0.99986694  0.50078370  0.50248343
   0.25166973  0.24872985  0.25008140
   0.75006570  0.74921808  0.24925456
   0.75187650  0.24895920  0.74786786
   0.24899707  0.75104757  0.75091677
Direct configuration=    12
   0.00147123  0.00145635  0.99921727
   0.49837058  0.49680774  0.99899904
   0.49722653  0.00328541  0.50127370
   0.99985475  0.50086284  0.50272667
   0.25183215  0.24860638  0.25009043
   0.75007030  0.74914139  0.24918073
   0.75206182  0.24885620  0.74765769
   0.24889912  0.75115109  0.75100828
Direct configuration=    13
   0.00160186  0.00158623  0.99914940
   0.49822694  0.49652081  0.99890754
   0.49698006  0.00357612  0.50138709
   0.99984288  0.50094220  0.50296842
   0.25199324  0.24848393  0.25009971
   0.75007436  0.74906512  0.24910711
   0.75224647  0.24875352  0.74744841
   0.24880186  0.75125425  0.75109972
Direct configuration=    14
   0.00173164  0.00171542  0.99908242
   0.49808447  0.49623476  0.99881593
   0.49673506  0.00386475  0.50149987
   0.99983134  0.50102181  0.50320855
   0.25215290  0.24836261  0.25010923
   0.75007782  0.74898931  0.24903371
   0.75243039  0.24865118  0.74724008
   0.24870535  0.75135700  0.75119110
Direct configuration=    15
   0.00186051  0.00184389  0.99901640
   0.49794328  0.49594966  0.99872421
   0.49649167  0.00415113  0.50161200
   0.99982018  0.50110168  0.50344693
   0.25231098  0.24824251  0.25011903
   0.75008064  0.74891399  0.24896054
   0.75261354  0.24854923  0.74703277
   0.24860966  0.75145931  0.75128238
Direct configuration=    16
   0.00198838  0.00197157  0.99895141
   0.49780347  0.49566560  0.99863236
   0.49624999  0.00443509  0.50172344
   0.99980940  0.50118183  0.50368342
   0.25246739  0.24812372  0.25012913
   0.75008278  0.74883921  0.24888763
   0.75279585  0.24844765  0.74682657
   0.24851485  0.75156114  0.75137357
Direct configuration=    17
   0.00211517  0.00209842  0.99888753
   0.49766515  0.49538265  0.99854036
   0.49601016  0.00471647  0.50183414
   0.99979903  0.50126230  0.50391792
   0.25262199  0.24800632  0.25013952
   0.75008418  0.74876499  0.24881500
   0.75297727  0.24834649  0.74662154
   0.24842100  0.75166245  0.75146466
Direct configuration=    18
   0.00224083  0.00222439  0.99882484
   0.49752840  0.49510088  0.99844822
   0.49577228  0.00499509  0.50194406
   0.99978909  0.50134310  0.50415028
   0.25277468  0.24789041  0.25015023
   0.75008482  0.74869139  0.24874267
   0.75315772  0.24824575  0.74641776
   0.24832816  0.75176320  0.75155562
Direct configuration=    19
   0.00236528  0.00234941  0.99876341
   0.49739332  0.49482039  0.99835592
   0.49553648  0.00527079  0.50205318
   0.99977959  0.50142426  0.50438036
   0.25292534  0.24777608  0.25016127
   0.75008464  0.74861844  0.24867066
   0.75333716  0.24814546  0.74621529
   0.24823640  0.75186335  0.75164645
Direct configuration=    20
   0.00248845  0.00247344  0.99870330
   0.49726001  0.49454125  0.99826345
   0.49530289  0.00554341  0.50216145
   0.99977057  0.50150579  0.50460804
   0.25307384  0.24766340  0.25017264
   0.75008362  0.74854618  0.24859901
   0.75351552  0.24804566  0.74601422
   0.24814578  0.75196288  0.75173715
Direct configuration=    21
   0.00261027  0.00259641  0.99864458
   0.49712856  0.49426354  0.99817079
   0.49507160  0.00581278  0.50226885
   0.99976206  0.50158772  0.50483318
   0.25322009  0.24755245  0.25018436
   0.75008172  0.74847465  0.24852772
   0.75369272  0.24794636  0.74581464
   0.24805636  0.75206173  0.75182771
Direct configuration=    22
   0.00273067  0.00271828  0.99858732
   0.49699907  0.49398735  0.99807795
   0.49484274  0.00607875  0.50237534
   0.99975407  0.50167006  0.50505564
   0.25336398  0.24744333  0.25019644
   0.75007888  0.74840387  0.24845681
   0.75386870  0.24784759  0.74561662
   0.24796819  0.75215989  0.75191812
Direct configuration=    23
   0.00284958  0.00283901  0.99853158
   0.49687162  0.49371273  0.99798492
   0.49461642  0.00634115  0.50248091
   0.99974662  0.50175284  0.50527531
   0.25350540  0.24733609  0.25020888
   0.75007510  0.74833388  0.24838631
   0.75404343  0.24774936  0.74542022
   0.24788133  0.75225732  0.75200836
Direct configuration=    24
   0.00296695  0.00295854  0.99847743
   0.49674629  0.49343977  0.99789169
   0.49439275  0.00659982  0.50258552
   0.99973973  0.50183608  0.50549206
   0.25364424  0.24723083  0.25022169
   0.75007032  0.74826470  0.24831623
   0.75421682  0.24765171  0.74522551
   0.24779584  0.75235400  0.75209844
Direct configuration=    25
   0.00308270  0.00307682  0.99842494
   0.49662317  0.49316857  0.99779824
   0.49417184  0.00685461  0.50268914
   0.99973342  0.50191980  0.50570575
   0.25378040  0.24712762  0.25023488
   0.75006453  0.74819636  0.24824657
   0.75438882  0.24755465  0.74503258
   0.24771178  0.75244990  0.75218835
Direct configuration=    26
   0.00319677  0.00319381  0.99837418
   0.49650236  0.49289918  0.99770458
   0.49395380  0.00710538  0.50279174
   0.99972771  0.50200404  0.50591628
   0.25391378  0.24702653  0.25024847
   0.75005768  0.74812888  0.24817735
   0.75455939  0.24745819  0.74484148
   0.24762920  0.75254499  0.75227810
Direct configuration=    27
   0.00330908  0.00330945  0.99832521
   0.49638393  0.49263170  0.99761068
   0.49373874  0.00735196  0.50289329
   0.99972262  0.50208881  0.50612351
   0.25404427  0.24692764  0.25026245
   0.75004973  0.74806229  0.24810858
   0.75472846  0.24736236  0.74465228
   0.24754815  0.75263924  0.75236766
Direct configuration=    28
   0.00341958  0.00342370  0.99827813
   0.49626796  0.49236618  0.99751654
   0.49352676  0.00759423  0.50299376
   0.99971815  0.50217415  0.50632734
   0.25417177  0.24683104  0.25027684
   0.75004068  0.74799661  0.24804028
   0.75489598  0.24726716  0.74446505
   0.24746869  0.75273262  0.75245705
Direct configuration=    29
   0.00352822  0.00353652  0.99823300
   0.49615453  0.49210270  0.99742213
   0.49331797  0.00783202  0.50309312
   0.99971433  0.50226008  0.50652764
   0.25429618  0.24673681  0.25029163
   0.75003047  0.74793187  0.24797246
   0.75506191  0.24717262  0.74427987
   0.24739088  0.75282509  0.75254625
Direct configuration=    30
   0.00363493  0.00364787  0.99818987
   0.49604374  0.49184134  0.99732744
   0.49311245  0.00806521  0.50319136
   0.99971117  0.50234662  0.50672430
   0.25441740  0.24664500  0.25030684
   0.75001908  0.74786808  0.24790513
   0.75522619  0.24707874  0.74409680
   0.24731476  0.75291662  0.75263527
Direct configuration=    31
   0.00373965  0.00375769  0.99814880
   0.49593565  0.49158217  0.99723249
   0.49291030  0.00829363  0.50328845
   0.99970869  0.50243379  0.50691721
   0.25453532  0.24655571  0.25032246
   0.75000648  0.74780528  0.24783831
   0.75538879  0.24698555  0.74391590
   0.24724040  0.75300720  0.75272408
Direct configuration=    32
   0.00384231  0.00386595  0.99810984
   0.49583035  0.49132526  0.99713725
   0.49271163  0.00851717  0.50338436
   0.99970691  0.50252162  0.50710626
   0.25464986  0.24646900  0.25033850
   0.74999265  0.74774348  0.24777201
   0.75554965  0.24689306  0.74373723
   0.24716783  0.75309678  0.75281270
Direct configuration=    33
   0.00394285  0.00397259  0.99807307
   0.49572792  0.49107069  0.99704173
   0.49251653  0.00873567  0.50347909
   0.99970582  0.50261012  0.50729133
   0.25476093  0.24638496  0.25035496
   0.74997756  0.74768269  0.24770623
   0.75570871  0.24680129  0.74356086
   0.24709712  0.75318535  0.75290112
Direct configuration=    34
   0.00404121  0.00407757  0.99803854
   0.49562843  0.49081851  0.99694591
   0.49232509  0.00894903  0.50357262
   0.99970544  0.50269933  0.50747234
   0.25486844  0.24630366  0.25037185
   0.74996118  0.74762294  0.24764098
   0.75586594  0.24671025  0.74338683
   0.24702831  0.75327284  0.75298933
Direct configuration=    35
   0.00413733  0.00418085  0.99800630
   0.49553194  0.49056880  0.99684981
   0.49213740  0.00915711  0.50366492
   0.99970580  0.50278926  0.50764918
   0.25497229  0.24622518  0.25038917
   0.74994350  0.74756425  0.24757629
   0.75602130  0.24661996  0.74321519
   0.24696148  0.75335924  0.75307730
Direct configuration=    36
   0.00423115  0.00428240  0.99797642
   0.49543853  0.49032163  0.99675341
   0.49195354  0.00935978  0.50375598
   0.99970689  0.50287993  0.50782175
   0.25507241  0.24614960  0.25040692
   0.74992447  0.74750664  0.24751217
   0.75617473  0.24653042  0.74304601
   0.24689666  0.75344452  0.75316503
Direct configuration=    37
   0.00432260  0.00438215  0.99794895
   0.49534827  0.49007705  0.99665670
   0.49177359  0.00955694  0.50384580
   0.99970874  0.50297136  0.50798996
   0.25516870  0.24607697  0.25042509
   0.74990408  0.74745013  0.24744861
   0.75632621  0.24644164  0.74287935
   0.24683390  0.75352864  0.75325252
Direct configuration=    38
   0.00441165  0.00448009  0.99792394
   0.49526123  0.48983512  0.99655967
   0.49159764  0.00974846  0.50393434
   0.99971135  0.50306359  0.50815371
   0.25526109  0.24600736  0.25044370
   0.74988231  0.74739473  0.24738563
   0.75647569  0.24635363  0.74271525
   0.24677326  0.75361159  0.75333977
Direct configuration=    39
   0.00449822  0.00457617  0.99790145
   0.49517747  0.48959591  0.99646234
   0.49142576  0.00993423  0.50402161
   0.99971471  0.50315662  0.50831291
   0.25534953  0.24594084  0.25046273
   0.74985913  0.74734047  0.24732324
   0.75662313  0.24626640  0.74255377
   0.24671477  0.75369335  0.75342677
Direct configuration=    40
   0.00458227  0.00467036  0.99788152
   0.49509706  0.48935947  0.99636468
   0.49125801  0.01011414  0.50410759
   0.99971885  0.50325049  0.50846746
   0.25543393  0.24587746  0.25048219
   0.74983453  0.74728736  0.24726145
   0.75676847  0.24617996  0.74239493
   0.24665848  0.75377387  0.75351351
Direct configuration=    41
   0.00466375  0.00476262  0.99786422
   0.49502007  0.48912587  0.99626670
   0.49109448  0.01028810  0.50419229
   0.99972377  0.50334521  0.50861728
   0.25551423  0.24581728  0.25050210
   0.74980849  0.74723541  0.24720025
   0.75691169  0.24609433  0.74223879
   0.24660444  0.75385313  0.75359999
Direct configuration=    42
   0.00474260  0.00485291  0.99784957
   0.49494654  0.48889516  0.99616840
   0.49093522  0.01045602  0.50427568
   0.99972946  0.50344081  0.50876229
   0.25559035  0.24576036  0.25052244
   0.74978099  0.74718464  0.24713967
   0.75705276  0.24600951  0.74208540
   0.24655270  0.75393108  0.75368618
Direct configuration=    43
   0.00481879  0.00494122  0.99783763
   0.49487653  0.48866740  0.99606976
   0.49078029  0.01061779  0.50435776
   0.99973594  0.50353730  0.50890241
   0.25566224  0.24570674  0.25054323
   0.74975203  0.74713507  0.24707970
   0.75719165  0.24592552  0.74193478
   0.24650329  0.75400770  0.75377209
Direct configuration=    44
   0.00489226  0.00502751  0.99782844
   0.49481011  0.48844264  0.99597080
   0.49062974  0.01077335  0.50443852
   0.99974319  0.50363470  0.50903756
   0.25572982  0.24565647  0.25056447
   0.74972157  0.74708669  0.24702037
   0.75732832  0.24584236  0.74178699
   0.24645629  0.75408296  0.75385771
Direct configuration=    45
   0.00496298  0.00511175  0.99782205
   0.49474732  0.48822093  0.99587151
   0.49048363  0.01092259  0.50451793
   0.99975123  0.50373304  0.50916767
   0.25579305  0.24560961  0.25058615
   0.74968961  0.74703952  0.24696168
   0.75746274  0.24576005  0.74164205
   0.24641171  0.75415684  0.75394302
Direct configuration=    46
   0.00503090  0.00519391  0.99781849
   0.49468823  0.48800232  0.99577189
   0.49034204  0.01106544  0.50459598
   0.99976005  0.50383233  0.50929267
   0.25585186  0.24556621  0.25060830
   0.74965612  0.74699356  0.24690362
   0.75759487  0.24567858  0.74149999
   0.24636961  0.75422930  0.75402804
Direct configuration=    47
   0.00509596  0.00527395  0.99781781
   0.49463287  0.48778685  0.99567194
   0.49020500  0.01120183  0.50467267
   0.99976966  0.50393259  0.50941249
   0.25590621  0.24552631  0.25063090
   0.74962109  0.74694884  0.24684622
   0.75772470  0.24559798  0.74136086
   0.24633001  0.75430034  0.75411275
Direct configuration=    48
   0.00515814  0.00535186  0.99782005
   0.49458129  0.48757458  0.99557167
   0.49007257  0.01133166  0.50474797
   0.99978006  0.50403383  0.50952705
   0.25595605  0.24548995  0.25065396
   0.74958451  0.74690535  0.24678947
   0.75785221  0.24551824  0.74122469
   0.24629295  0.75436993  0.75419716
Direct configuration=    49
   0.00521739  0.00542760  0.99782526
   0.49453354  0.48736553  0.99547105
   0.48994479  0.01145487  0.50482187
   0.99979125  0.50413607  0.50963630
   0.25600131  0.24545718  0.25067747
   0.74954637  0.74686310  0.24673338
   0.75797737  0.24543940  0.74109150
   0.24625846  0.75443805  0.75428127
Direct configuration=    50
   0.00527366  0.00550115  0.99783346
   0.49448965  0.48715974  0.99537011
   0.48982172  0.01157138  0.50489436
   0.99980322  0.50423932  0.50974017
   0.25604198  0.24542803  0.25070144
   0.74950666  0.74682210  0.24667797
   0.75810017  0.24536145  0.74096132
   0.24622656  0.75450468  0.75436508
Direct configuration=    51
   0.00532693  0.00557247  0.99784470
   0.49444965  0.48695725  0.99526882
   0.48970342  0.01168114  0.50496542
   0.99981599  0.50434361  0.50983862
   0.25607799  0.24540256  0.25072587
   0.74946538  0.74678237  0.24662322
   0.75822059  0.24528440  0.74083418
   0.24619728  0.75456980  0.75444858
Direct configuration=    52
   0.00537716  0.00564155  0.99785900
   0.49441358  0.48675810  0.99516721
   0.48958992  0.01178407  0.50503504
   0.99982954  0.50444895  0.50993159
   0.25610932  0.24538079  0.25075076
   0.74942251  0.74674392  0.24656915
   0.75833861  0.24520828  0.74071011
   0.24617064  0.75463338  0.75453177
Direct configuration=    53
   0.00542432  0.00570836  0.99787641
   0.49438147  0.48656232  0.99506527
   0.48948126  0.01188011  0.50510322
   0.99984386  0.50455534  0.51001904
   0.25613594  0.24536276  0.25077611
   0.74937805  0.74670675  0.24651577
   0.75845420  0.24513309  0.74058913
   0.24614667  0.75469541  0.75461463
Direct configuration=    54
   0.00546836  0.00577288  0.99789694
   0.49435338  0.48636995  0.99496300
   0.48937750  0.01196921  0.50516992
   0.99985896  0.50466282  0.51010090
   0.25615781  0.24534851  0.25080194
   0.74933197  0.74667086  0.24646308
   0.75856735  0.24505884  0.74047125
   0.24612539  0.75475585  0.75469718
Direct configuration=    55
   0.00550925  0.00583508  0.99792063
   0.49432931  0.48618101  0.99486041
   0.48927866  0.01205132  0.50523515
   0.99987484  0.50477138  0.51017715
   0.25617492  0.24533806  0.25082824
   0.74928428  0.74663625  0.24641108
   0.75867804  0.24498554  0.74035650
   0.24610683  0.75481471  0.75477940
Direct configuration=    56
   0.00554698  0.00589495  0.99794749
   0.49430930  0.48599555  0.99475749
   0.48918477  0.01212639  0.50529888
   0.99989148  0.50488104  0.51024774
   0.25618724  0.24533144  0.25085501
   0.74923497  0.74660294  0.24635979
   0.75878626  0.24491320  0.74024488
   0.24609100  0.75487194  0.75486130
Direct configuration=    57
   0.00558150  0.00595248  0.99797756
   0.49429335  0.48581358  0.99465426
   0.48909588  0.01219437  0.50536110
   0.99990889  0.50499184  0.51031264
   0.25619476  0.24532867  0.25088227
   0.74918402  0.74657093  0.24630922
   0.75889200  0.24484183  0.74013643
   0.24607793  0.75492752  0.75494285
Direct configuration=    58
   0.00561279  0.00600763  0.99801085
   0.49428149  0.48563514  0.99455070
   0.48901199  0.01225523  0.50542180
   0.99992707  0.50510378  0.51037183
   0.25619744  0.24532980  0.25091002
   0.74913143  0.74654021  0.24625938
   0.75899526  0.24477144  0.74003113
   0.24606764  0.75498142  0.75502407
Direct configuration=    59
   0.00564083  0.00606040  0.99804739
   0.49427373  0.48546024  0.99444684
   0.48893315  0.01230891  0.50548096
   0.99994602  0.50521687  0.51042526
   0.25619528  0.24533484  0.25093826
   0.74907719  0.74651081  0.24621026
   0.75909603  0.24470205  0.73992902
   0.24606014  0.75503363  0.75510493
Direct configuration=    60
   0.00566558  0.00611076  0.99808720
   0.49427010  0.48528892  0.99434267
   0.48885938  0.01235538  0.50553857
   0.99996571  0.50533111  0.51047291
   0.25618826  0.24534381  0.25096699
   0.74902130  0.74648273  0.24616188
   0.75919431  0.24463367  0.73983010
   0.24605545  0.75508413  0.75518545
Direct configuration=    61
   0.00568702  0.00615870  0.99813029
   0.49427060  0.48512120  0.99423820
   0.48879068  0.01239462  0.50559461
   0.99998614  0.50544649  0.51051475
   0.25617638  0.24535673  0.25099622
   0.74896375  0.74645597  0.24611424
   0.75929010  0.24456631  0.73973437
   0.24605359  0.75513290  0.75526562
Direct configuration=    62
   0.00570514  0.00620420  0.99817667
   0.49427526  0.48495708  0.99413346
   0.48872708  0.01242660  0.50564906
   0.00000731  0.50556304  0.51055075
   0.25615962  0.24537362  0.25102595
   0.74890453  0.74643055  0.24606734
   0.75938338  0.24449998  0.73964184
   0.24605457  0.75517993  0.75534544
Direct configuration=    63
   0.00571990  0.00624725  0.99822637
   0.49428408  0.48479659  0.99402845
   0.48866860  0.01245130  0.50570191
   0.00002920  0.50568074  0.51058091
   0.25613800  0.24539448  0.25105619
   0.74884364  0.74640647  0.24602119
   0.75947416  0.24443469  0.73955253
   0.24605841  0.75522521  0.75542490
Direct configuration=    64
   0.00573130  0.00628784  0.99827938
   0.49429707  0.48463974  0.99392318
   0.48861524  0.01246870  0.50575313
   0.00005180  0.50579961  0.51060519
   0.25611152  0.24541932  0.25108694
   0.74878107  0.74638374  0.24597579
   0.75956242  0.24437046  0.73946643
   0.24606512  0.75526872  0.75550402
Direct configuration=    65
   0.00573931  0.00632595  0.99833573
   0.49431425  0.48448653  0.99381765
   0.48856701  0.01247879  0.50580269
   0.00007510  0.50591964  0.51062358
   0.25608019  0.24544816  0.25111821
   0.74871682  0.74636235  0.24593114
   0.75964818  0.24430729  0.73938357
   0.24607471  0.75531045  0.75558278
Direct configuration=    66
   0.00574392  0.00636156  0.99839540
   0.49433561  0.48433697  0.99371190
   0.48852392  0.01248156  0.50585059
   0.00009910  0.50604085  0.51063607
   0.25604401  0.24548100  0.25115001
   0.74865088  0.74634231  0.24588725
   0.75973143  0.24424520  0.73930394
   0.24608719  0.75535040  0.75566119
Direct configuration=    67
   0.00574511  0.00639469  0.99845842
   0.49436116  0.48419108  0.99360592
   0.48848596  0.01247702  0.50589680
   0.00012377  0.50616322  0.51064268
   0.25600302  0.24551785  0.25118232
   0.74858326  0.74632362  0.24584412
   0.75981216  0.24418421  0.73922754
   0.24610255  0.75538854  0.75573925
Direct configuration=    68
   0.00574287  0.00642529  0.99852479
   0.49439091  0.48404886  0.99349973
   0.48845313  0.01246516  0.50594130
   0.00014910  0.50628674  0.51064339
   0.25595722  0.24555870  0.25121518
   0.74851395  0.74630628  0.24580175
   0.75989039  0.24412432  0.73915435
   0.24612079  0.75542486  0.75581693
Direct configuration=    69
   0.00573721  0.00645338  0.99859452
   0.49442485  0.48391032  0.99339336
   0.48842545  0.01244598  0.50598406
   0.00017509  0.50641141  0.51063820
   0.25590662  0.24560356  0.25124857
   0.74844296  0.74629029  0.24576013
   0.75996612  0.24406556  0.73908438
   0.24614192  0.75545937  0.75589425
Direct configuration=    70
   0.00572810  0.00647892  0.99866762
   0.49446297  0.48377548  0.99328682
   0.48840288  0.01241949  0.50602505
   0.00020171  0.50653723  0.51062713
   0.25585127  0.24565243  0.25128251
   0.74837030  0.74627563  0.24571927
   0.76003934  0.24400794  0.73901762
   0.24616594  0.75549205  0.75597121
Direct configuration=    71
   0.00571556  0.00650192  0.99874408
   0.49450527  0.48364433  0.99318013
   0.48838543  0.01238572  0.50606424
   0.00022895  0.50666418  0.51061017
   0.25579118  0.24570530  0.25131700
   0.74829596  0.74626233  0.24567919
   0.76011009  0.24395147  0.73895406
   0.24619283  0.75552290  0.75604781
Direct configuration=    72
   0.00569956  0.00652236  0.99882389
   0.49455175  0.48351688  0.99307330
   0.48837308  0.01234466  0.50610162
   0.00025678  0.50679225  0.51058733
   0.25572637  0.24576216  0.25135205
   0.74821994  0.74625036  0.24563986
   0.76017836  0.24389617  0.73889370
   0.24622260  0.75555191  0.75612405
Direct configuration=    73
   0.00568012  0.00654025  0.99890706
   0.49460238  0.48339314  0.99296635
   0.48836583  0.01229635  0.50613715
   0.00028521  0.50692143  0.51055864
   0.25565689  0.24582302  0.25138766
   0.74814225  0.74623973  0.24560131
   0.76024418  0.24384204  0.73883653
   0.24625522  0.75557905  0.75619993
Direct configuration=    74
   0.00565723  0.00655557  0.99899359
   0.49465717  0.48327312  0.99285931
   0.48836364  0.01224080  0.50617081
   0.00031421  0.50705171  0.51052409
   0.25558276  0.24588786  0.25142385
   0.74806288  0.74623043  0.24556351
   0.76030756  0.24378911  0.73878254
   0.24629070  0.75560433  0.75627545
Direct configuration=    75
   0.00563090  0.00656833  0.99908345
   0.49471608  0.48315680  0.99275219
   0.48836652  0.01217804  0.50620258
   0.00034377  0.50718307  0.51048371
   0.25550403  0.24595668  0.25146062
   0.74798184  0.74622247  0.24552648
   0.76036851  0.24373739  0.73873171
   0.24632902  0.75562774  0.75635061
Direct configuration=    76
   0.00560113  0.00657851  0.99917663
   0.49477911  0.48304418  0.99264500
   0.48837442  0.01210810  0.50623243
   0.00037386  0.50731550  0.51043752
   0.25542075  0.24602946  0.25149798
   0.74789912  0.74621583  0.24549023
   0.76042705  0.24368688  0.73868402
   0.24637016  0.75564928  0.75642543
Direct configuration=    77
   0.00556793  0.00658612  0.99927314
   0.49484622  0.48293526  0.99253776
   0.48838733  0.01203102  0.50626033
   0.00040449  0.50744899  0.51038556
   0.25533297  0.24610619  0.25153595
   0.74781474  0.74621051  0.24545475
   0.76048319  0.24363760  0.73863945
   0.24641411  0.75566894  0.75649990
Direct configuration=    78
   0.00553131  0.00659115  0.99937294
   0.49491740  0.48283003  0.99243049
   0.48840522  0.01194683  0.50628626
   0.00043561  0.50758354  0.51032783
   0.25524072  0.24618685  0.25157454
   0.74772870  0.74620650  0.24542003
   0.76053696  0.24358955  0.73859798
   0.24646086  0.75568671  0.75657403
Direct configuration=    79
   0.00549129  0.00659361  0.99947604
   0.49499262  0.48272848  0.99232323
   0.48842805  0.01185559  0.50631018
   0.00046722  0.50771911  0.51026439
   0.25514407  0.24627141  0.25161374
   0.74764100  0.74620381  0.24538608
   0.76058837  0.24354275  0.73855957
   0.24651038  0.75570261  0.75664784
Direct configuration=    80
   0.00544786  0.00659348  0.99958241
   0.49507186  0.48263061  0.99221598
   0.48845580  0.01175733  0.50633207
   0.00049930  0.50785571  0.51019525
   0.25504309  0.24635983  0.25165358
   0.74755165  0.74620243  0.24535290
   0.76063743  0.24349721  0.73852422
   0.24656265  0.75571663  0.75672132
Direct configuration=    81
   0.00540104  0.00659078  0.99969203
   0.49515507  0.48253640  0.99210878
   0.48848841  0.01165211  0.50635190
   0.00053181  0.50799330  0.51012047
   0.25493784  0.24645211  0.25169405
   0.74746066  0.74620235  0.24532050
   0.76068418  0.24345292  0.73849190
   0.24661767  0.75572877  0.75679448
Direct configuration=    82
   0.00535085  0.00658550  0.99980487
   0.49524222  0.48244585  0.99200166
   0.48852585  0.01153998  0.50636963
   0.00056476  0.50813186  0.51004007
   0.25482836  0.24654821  0.25173516
   0.74736804  0.74620358  0.24528885
   0.76072864  0.24340992  0.73846257
   0.24667540  0.75573904  0.75686732
Direct configuration=    83
   0.00529731  0.00657764  0.99992092
   0.49533329  0.48235894  0.99189464
   0.48856807  0.01142098  0.50638524
   0.00059812  0.50827141  0.50995409
   0.25471474  0.24664810  0.25177694
   0.74727379  0.74620609  0.24525798
   0.76077084  0.24336820  0.73843622
   0.24673582  0.75574742  0.75693986
Direct configuration=    84
   0.00524043  0.00656721  0.00004014
   0.49542825  0.48227565  0.99178774
   0.48861503  0.01129519  0.50639871
   0.00063188  0.50841191  0.50986258
   0.25459701  0.24675175  0.25181938
   0.74717792  0.74620989  0.24522788
   0.76081081  0.24332777  0.73841281
   0.24679890  0.75575393  0.75701209
Direct configuration=    85
   0.00518023  0.00655422  0.00016251
   0.49552705  0.48219594  0.99168100
   0.48866668  0.01116267  0.50640999
   0.00066600  0.50855335  0.50976558
   0.25447527  0.24685914  0.25186250
   0.74708044  0.74621495  0.24519854
   0.76084856  0.24328865  0.73839232
   0.24686462  0.75575856  0.75708402
Direct configuration=    86
   0.00511674  0.00653866  0.00028800
   0.49562966  0.48211982  0.99157444
   0.48872298  0.01102349  0.50641906
   0.00070047  0.50869573  0.50966314
   0.25434958  0.24697023  0.25190631
   0.74698135  0.74622128  0.24516999
   0.76088415  0.24325084  0.73837471
   0.24693293  0.75576130  0.75715565
Direct configuration=    87
   0.00504998  0.00652055  0.00041659
   0.49573604  0.48204725  0.99146808
   0.48878387  0.01087772  0.50642589
   0.00073528  0.50883901  0.50955533
   0.25422002  0.24708499  0.25195081
   0.74688065  0.74622885  0.24514220
   0.76091758  0.24321435  0.73835996
   0.24700382  0.75576217  0.75722698
Direct configuration=    88
   0.00497997  0.00649989  0.00054824
   0.49584613  0.48197821  0.99136195
   0.48884930  0.01072545  0.50643045
   0.00077040  0.50898319  0.50944220
   0.25408669  0.24720336  0.25199602
   0.74677838  0.74623765  0.24511518
   0.76094890  0.24317920  0.73834802
   0.24707725  0.75576116  0.75729801
Direct configuration=    89
   0.00490672  0.00647668  0.00068292
   0.49595989  0.48191269  0.99125608
   0.48891922  0.01056674  0.50643273
   0.00080580  0.50912823  0.50932383
   0.25394968  0.24732529  0.25204194
   0.74667452  0.74624768  0.24508892
   0.76097812  0.24314540  0.73833886
   0.24715317  0.75575829  0.75736874
Direct configuration=    90
   0.00483027  0.00645096  0.00082060
   0.49607728  0.48185065  0.99115050
   0.48899356  0.01040167  0.50643269
   0.00084147  0.50927411  0.50920026
   0.25380907  0.24745075  0.25208858
   0.74656912  0.74625891  0.24506341